 3
 energy=1.5792516106981900 cutoff=3.89000000 nneightol=1.20000000 pbc="T T T" Lattice="15.00000000       0.00000000       0.00000000       0.00000000      15.00000000       0.00000000       0.00000000       0.00000000      15.00000000" Properties=species:S:1:pos:R:3:Z:I:1:map_shift:I:3:n_neighb:I:1
 O               0.00000000      0.00000000      0.00000000       8       0       0       0       2
 H               0.95883000      0.00000000      0.00000000       1       0       0       0       2
 H               0.35000000      0.60622000      0.00000000       1       0       0       0       2
 3
 energy=.98919504364766553 cutoff=3.89000000 nneightol=1.20000000 pbc="T T T" Lattice="15.00000000       0.00000000       0.00000000       0.00000000      15.00000000       0.00000000       0.00000000       0.00000000      15.00000000" Properties=species:S:1:pos:R:3:Z:I:1:map_shift:I:3:n_neighb:I:1
 O               0.00000000      0.00000000      0.00000000       8       0       0       0       2
 H               0.95883000      0.00000000      0.00000000       1       0       0       0       2
 H               0.36842000      0.63812000      0.00000000       1       0       0       0       2
 3
 energy=.61667984205093163 cutoff=3.89000000 nneightol=1.20000000 pbc="T T T" Lattice="15.00000000       0.00000000       0.00000000       0.00000000      15.00000000       0.00000000       0.00000000       0.00000000      15.00000000" Properties=species:S:1:pos:R:3:Z:I:1:map_shift:I:3:n_neighb:I:1
 O               0.00000000      0.00000000      0.00000000       8       0       0       0       2
 H               0.95883000      0.00000000      0.00000000       1       0       0       0       2
 H               0.38684000      0.67003000      0.00000000       1       0       0       0       2
 3
 energy=.40365287141592177 cutoff=3.89000000 nneightol=1.20000000 pbc="T T T" Lattice="15.00000000       0.00000000       0.00000000       0.00000000      15.00000000       0.00000000       0.00000000       0.00000000      15.00000000" Properties=species:S:1:pos:R:3:Z:I:1:map_shift:I:3:n_neighb:I:1
 O               0.00000000      0.00000000      0.00000000       8       0       0       0       2
 H               0.95883000      0.00000000      0.00000000       1       0       0       0       2
 H               0.40527000      0.70194000      0.00000000       1       0       0       0       2
 3
 energy=.30302894245057388 cutoff=3.89000000 nneightol=1.20000000 pbc="T T T" Lattice="15.00000000       0.00000000       0.00000000       0.00000000      15.00000000       0.00000000       0.00000000       0.00000000      15.00000000" Properties=species:S:1:pos:R:3:Z:I:1:map_shift:I:3:n_neighb:I:1
 O               0.00000000      0.00000000      0.00000000       8       0       0       0       2
 H               0.95883000      0.00000000      0.00000000       1       0       0       0       2
 H               0.42369000      0.73384000      0.00000000       1       0       0       0       2
 3
 energy=.27739905550150112 cutoff=3.89000000 nneightol=1.20000000 pbc="T T T" Lattice="15.00000000       0.00000000       0.00000000       0.00000000      15.00000000       0.00000000       0.00000000       0.00000000      15.00000000" Properties=species:S:1:pos:R:3:Z:I:1:map_shift:I:3:n_neighb:I:1
 O               0.00000000      0.00000000      0.00000000       8       0       0       0       2
 H               0.95883000      0.00000000      0.00000000       1       0       0       0       2
 H               0.44211000      0.76575000      0.00000000       1       0       0       0       2
 3
 energy=.29748570718224698 cutoff=3.89000000 nneightol=1.20000000 pbc="T T T" Lattice="15.00000000       0.00000000       0.00000000       0.00000000      15.00000000       0.00000000       0.00000000       0.00000000      15.00000000" Properties=species:S:1:pos:R:3:Z:I:1:map_shift:I:3:n_neighb:I:1
 O               0.00000000      0.00000000      0.00000000       8       0       0       0       2
 H               0.95883000      0.00000000      0.00000000       1       0       0       0       2
 H               0.46053000      0.79765000      0.00000000       1       0       0       0       2
 3
 energy=.34002423895443812 cutoff=3.89000000 nneightol=1.20000000 pbc="T T T" Lattice="15.00000000       0.00000000       0.00000000       0.00000000      15.00000000       0.00000000       0.00000000       0.00000000      15.00000000" Properties=species:S:1:pos:R:3:Z:I:1:map_shift:I:3:n_neighb:I:1
 O               0.00000000      0.00000000      0.00000000       8       0       0       0       2
 H               0.95883000      0.00000000      0.00000000       1       0       0       0       2
 H               0.47895000      0.82956000      0.00000000       1       0       0       0       2
 3
 energy=.38597830337671368 cutoff=3.89000000 nneightol=1.20000000 pbc="T T T" Lattice="15.00000000       0.00000000       0.00000000       0.00000000      15.00000000       0.00000000       0.00000000       0.00000000      15.00000000" Properties=species:S:1:pos:R:3:Z:I:1:map_shift:I:3:n_neighb:I:1
 O               0.00000000      0.00000000      0.00000000       8       0       0       0       2
 H               0.95883000      0.00000000      0.00000000       1       0       0       0       2
 H               0.49737000      0.86147000      0.00000000       1       0       0       0       2
 3
 energy=.41922598205744421 cutoff=3.89000000 nneightol=1.20000000 pbc="T T T" Lattice="15.00000000       0.00000000       0.00000000       0.00000000      15.00000000       0.00000000       0.00000000       0.00000000      15.00000000" Properties=species:S:1:pos:R:3:Z:I:1:map_shift:I:3:n_neighb:I:1
 O               0.00000000      0.00000000      0.00000000       8       0       0       0       2
 H               0.95883000      0.00000000      0.00000000       1       0       0       0       2
 H               0.51579000      0.89337000      0.00000000       1       0       0       0       2
 3
 energy=.42584980596434008 cutoff=3.89000000 nneightol=1.20000000 pbc="T T T" Lattice="15.00000000       0.00000000       0.00000000       0.00000000      15.00000000       0.00000000       0.00000000       0.00000000      15.00000000" Properties=species:S:1:pos:R:3:Z:I:1:map_shift:I:3:n_neighb:I:1
 O               0.00000000      0.00000000      0.00000000       8       0       0       0       2
 H               0.95883000      0.00000000      0.00000000       1       0       0       0       2
 H               0.53421000      0.92528000      0.00000000       1       0       0       0       2
 3
 energy=.39390781193583280 cutoff=3.89000000 nneightol=1.20000000 pbc="T T T" Lattice="15.00000000       0.00000000       0.00000000       0.00000000      15.00000000       0.00000000       0.00000000       0.00000000      15.00000000" Properties=species:S:1:pos:R:3:Z:I:1:map_shift:I:3:n_neighb:I:1
 O               0.00000000      0.00000000      0.00000000       8       0       0       0       2
 H               0.95883000      0.00000000      0.00000000       1       0       0       0       2
 H               0.55263000      0.95718000      0.00000000       1       0       0       0       2
 3
 energy=.31340431460330720 cutoff=3.89000000 nneightol=1.20000000 pbc="T T T" Lattice="15.00000000       0.00000000       0.00000000       0.00000000      15.00000000       0.00000000       0.00000000       0.00000000      15.00000000" Properties=species:S:1:pos:R:3:Z:I:1:map_shift:I:3:n_neighb:I:1
 O               0.00000000      0.00000000      0.00000000       8       0       0       0       2
 H               0.95883000      0.00000000      0.00000000       1       0       0       0       2
 H               0.57106000      0.98910000      0.00000000       1       0       0       0       2
 3
 energy=.17657033273296463 cutoff=3.89000000 nneightol=1.20000000 pbc="T T T" Lattice="15.00000000       0.00000000       0.00000000       0.00000000      15.00000000       0.00000000       0.00000000       0.00000000      15.00000000" Properties=species:S:1:pos:R:3:Z:I:1:map_shift:I:3:n_neighb:I:1
 O               0.00000000      0.00000000      0.00000000       8       0       0       0       2
 H               0.95883000      0.00000000      0.00000000       1       0       0       0       2
 H               0.58948000      1.02100000      0.00000000       1       0       0       0       2
 3
 energy=-.22586069162141342E-001 cutoff=3.89000000 nneightol=1.20000000 pbc="T T T" Lattice="15.00000000       0.00000000       0.00000000       0.00000000      15.00000000       0.00000000       0.00000000       0.00000000      15.00000000" Properties=species:S:1:pos:R:3:Z:I:1:map_shift:I:3:n_neighb:I:1
 O               0.00000000      0.00000000      0.00000000       8       0       0       0       2
 H               0.95883000      0.00000000      0.00000000       1       0       0       0       2
 H               0.60790000      1.05291000      0.00000000       1       0       0       0       2
 3
 energy=-.28812342199104535 cutoff=3.89000000 nneightol=1.20000000 pbc="T T T" Lattice="15.00000000       0.00000000       0.00000000       0.00000000      15.00000000       0.00000000       0.00000000       0.00000000      15.00000000" Properties=species:S:1:pos:R:3:Z:I:1:map_shift:I:3:n_neighb:I:1
 O               0.00000000      0.00000000      0.00000000       8       0       0       0       2
 H               0.95883000      0.00000000      0.00000000       1       0       0       0       2
 H               0.62632000      1.08481000      0.00000000       1       0       0       0       2
 3
 energy=-.62276630404071831 cutoff=3.89000000 nneightol=1.20000000 pbc="T T T" Lattice="15.00000000       0.00000000       0.00000000       0.00000000      15.00000000       0.00000000       0.00000000       0.00000000      15.00000000" Properties=species:S:1:pos:R:3:Z:I:1:map_shift:I:3:n_neighb:I:1
 O               0.00000000      0.00000000      0.00000000       8       0       0       0       2
 H               0.95883000      0.00000000      0.00000000       1       0       0       0       2
 H               0.64474000      1.11671000      0.00000000       1       0       0       0       2
 3
 energy=-1.0280349782932117 cutoff=3.89000000 nneightol=1.20000000 pbc="T T T" Lattice="15.00000000       0.00000000       0.00000000       0.00000000      15.00000000       0.00000000       0.00000000       0.00000000      15.00000000" Properties=species:S:1:pos:R:3:Z:I:1:map_shift:I:3:n_neighb:I:1
 O               0.00000000      0.00000000      0.00000000       8       0       0       0       2
 H               0.95883000      0.00000000      0.00000000       1       0       0       0       2
 H               0.66316000      1.14863000      0.00000000       1       0       0       0       2
 3
 energy=-1.5032994964384354 cutoff=3.89000000 nneightol=1.20000000 pbc="T T T" Lattice="15.00000000       0.00000000       0.00000000       0.00000000      15.00000000       0.00000000       0.00000000       0.00000000      15.00000000" Properties=species:S:1:pos:R:3:Z:I:1:map_shift:I:3:n_neighb:I:1
 O               0.00000000      0.00000000      0.00000000       8       0       0       0       2
 H               0.95883000      0.00000000      0.00000000       1       0       0       0       2
 H               0.68158000      1.18053000      0.00000000       1       0       0       0       2
 3
 energy=-2.0467368306595279 cutoff=3.89000000 nneightol=1.20000000 pbc="T T T" Lattice="15.00000000       0.00000000       0.00000000       0.00000000      15.00000000       0.00000000       0.00000000       0.00000000      15.00000000" Properties=species:S:1:pos:R:3:Z:I:1:map_shift:I:3:n_neighb:I:1
 O               0.00000000      0.00000000      0.00000000       8       0       0       0       2
 H               0.95883000      0.00000000      0.00000000       1       0       0       0       2
 H               0.70000000      1.21244000      0.00000000       1       0       0       0       2
 3
 energy=1.6235730786192200 cutoff=3.89000000 nneightol=1.20000000 pbc="T T T" Lattice="15.00000000       0.00000000       0.00000000       0.00000000      15.00000000       0.00000000       0.00000000       0.00000000      15.00000000" Properties=species:S:1:pos:R:3:Z:I:1:map_shift:I:3:n_neighb:I:1
 O               0.00000000      0.00000000      0.00000000       8       0       0       0       2
 H               0.95883000      0.00000000      0.00000000       1       0       0       0       2
 H               0.31667000      0.62428000      0.00000000       1       0       0       0       2
 3
 energy=1.0121014042798038 cutoff=3.89000000 nneightol=1.20000000 pbc="T T T" Lattice="15.00000000       0.00000000       0.00000000       0.00000000      15.00000000       0.00000000       0.00000000       0.00000000      15.00000000" Properties=species:S:1:pos:R:3:Z:I:1:map_shift:I:3:n_neighb:I:1
 O               0.00000000      0.00000000      0.00000000       8       0       0       0       2
 H               0.95883000      0.00000000      0.00000000       1       0       0       0       2
 H               0.33333000      0.65713000      0.00000000       1       0       0       0       2
 3
 energy=.62327949249526071 cutoff=3.89000000 nneightol=1.20000000 pbc="T T T" Lattice="15.00000000       0.00000000       0.00000000       0.00000000      15.00000000       0.00000000       0.00000000       0.00000000      15.00000000" Properties=species:S:1:pos:R:3:Z:I:1:map_shift:I:3:n_neighb:I:1
 O               0.00000000      0.00000000      0.00000000       8       0       0       0       2
 H               0.95883000      0.00000000      0.00000000       1       0       0       0       2
 H               0.35000000      0.68999000      0.00000000       1       0       0       0       2
 3
 energy=.39796871124964284 cutoff=3.89000000 nneightol=1.20000000 pbc="T T T" Lattice="15.00000000       0.00000000       0.00000000       0.00000000      15.00000000       0.00000000       0.00000000       0.00000000      15.00000000" Properties=species:S:1:pos:R:3:Z:I:1:map_shift:I:3:n_neighb:I:1
 O               0.00000000      0.00000000      0.00000000       8       0       0       0       2
 H               0.95883000      0.00000000      0.00000000       1       0       0       0       2
 H               0.36667000      0.72285000      0.00000000       1       0       0       0       2
 3
 energy=.28785114186460348 cutoff=3.89000000 nneightol=1.20000000 pbc="T T T" Lattice="15.00000000       0.00000000       0.00000000       0.00000000      15.00000000       0.00000000       0.00000000       0.00000000      15.00000000" Properties=species:S:1:pos:R:3:Z:I:1:map_shift:I:3:n_neighb:I:1
 O               0.00000000      0.00000000      0.00000000       8       0       0       0       2
 H               0.95883000      0.00000000      0.00000000       1       0       0       0       2
 H               0.38333000      0.75571000      0.00000000       1       0       0       0       2
 3
 energy=.25457632643098904 cutoff=3.89000000 nneightol=1.20000000 pbc="T T T" Lattice="15.00000000       0.00000000       0.00000000       0.00000000      15.00000000       0.00000000       0.00000000       0.00000000      15.00000000" Properties=species:S:1:pos:R:3:Z:I:1:map_shift:I:3:n_neighb:I:1
 O               0.00000000      0.00000000      0.00000000       8       0       0       0       2
 H               0.95883000      0.00000000      0.00000000       1       0       0       0       2
 H               0.40000000      0.78856000      0.00000000       1       0       0       0       2
 3
 energy=.26803479519559303 cutoff=3.89000000 nneightol=1.20000000 pbc="T T T" Lattice="15.00000000       0.00000000       0.00000000       0.00000000      15.00000000       0.00000000       0.00000000       0.00000000      15.00000000" Properties=species:S:1:pos:R:3:Z:I:1:map_shift:I:3:n_neighb:I:1
 O               0.00000000      0.00000000      0.00000000       8       0       0       0       2
 H               0.95883000      0.00000000      0.00000000       1       0       0       0       2
 H               0.41667000      0.82142000      0.00000000       1       0       0       0       2
 3
 energy=.30436093569983669 cutoff=3.89000000 nneightol=1.20000000 pbc="T T T" Lattice="15.00000000       0.00000000       0.00000000       0.00000000      15.00000000       0.00000000       0.00000000       0.00000000      15.00000000" Properties=species:S:1:pos:R:3:Z:I:1:map_shift:I:3:n_neighb:I:1
 O               0.00000000      0.00000000      0.00000000       8       0       0       0       2
 H               0.95883000      0.00000000      0.00000000       1       0       0       0       2
 H               0.43333000      0.85427000      0.00000000       1       0       0       0       2
 3
 energy=.34416114962984423 cutoff=3.89000000 nneightol=1.20000000 pbc="T T T" Lattice="15.00000000       0.00000000       0.00000000       0.00000000      15.00000000       0.00000000       0.00000000       0.00000000      15.00000000" Properties=species:S:1:pos:R:3:Z:I:1:map_shift:I:3:n_neighb:I:1
 O               0.00000000      0.00000000      0.00000000       8       0       0       0       2
 H               0.95883000      0.00000000      0.00000000       1       0       0       0       2
 H               0.45000000      0.88713000      0.00000000       1       0       0       0       2
 3
 energy=.37108720905946413 cutoff=3.89000000 nneightol=1.20000000 pbc="T T T" Lattice="15.00000000       0.00000000       0.00000000       0.00000000      15.00000000       0.00000000       0.00000000       0.00000000      15.00000000" Properties=species:S:1:pos:R:3:Z:I:1:map_shift:I:3:n_neighb:I:1
 O               0.00000000      0.00000000      0.00000000       8       0       0       0       2
 H               0.95883000      0.00000000      0.00000000       1       0       0       0       2
 H               0.46667000      0.91999000      0.00000000       1       0       0       0       2
 3
 energy=.37117302319327194 cutoff=3.89000000 nneightol=1.20000000 pbc="T T T" Lattice="15.00000000       0.00000000       0.00000000       0.00000000      15.00000000       0.00000000       0.00000000       0.00000000      15.00000000" Properties=species:S:1:pos:R:3:Z:I:1:map_shift:I:3:n_neighb:I:1
 O               0.00000000      0.00000000      0.00000000       8       0       0       0       2
 H               0.95883000      0.00000000      0.00000000       1       0       0       0       2
 H               0.48333000      0.95284000      0.00000000       1       0       0       0       2
 3
 energy=.33260249169147116 cutoff=3.89000000 nneightol=1.20000000 pbc="T T T" Lattice="15.00000000       0.00000000       0.00000000       0.00000000      15.00000000       0.00000000       0.00000000       0.00000000      15.00000000" Properties=species:S:1:pos:R:3:Z:I:1:map_shift:I:3:n_neighb:I:1
 O               0.00000000      0.00000000      0.00000000       8       0       0       0       2
 H               0.95883000      0.00000000      0.00000000       1       0       0       0       2
 H               0.50000000      0.98570000      0.00000000       1       0       0       0       2
 3
 energy=.24569738040824163 cutoff=3.89000000 nneightol=1.20000000 pbc="T T T" Lattice="15.00000000       0.00000000       0.00000000       0.00000000      15.00000000       0.00000000       0.00000000       0.00000000      15.00000000" Properties=species:S:1:pos:R:3:Z:I:1:map_shift:I:3:n_neighb:I:1
 O               0.00000000      0.00000000      0.00000000       8       0       0       0       2
 H               0.95883000      0.00000000      0.00000000       1       0       0       0       2
 H               0.51667000      1.01856000      0.00000000       1       0       0       0       2
 3
 energy=.10294920153794251 cutoff=3.89000000 nneightol=1.20000000 pbc="T T T" Lattice="15.00000000       0.00000000       0.00000000       0.00000000      15.00000000       0.00000000       0.00000000       0.00000000      15.00000000" Properties=species:S:1:pos:R:3:Z:I:1:map_shift:I:3:n_neighb:I:1
 O               0.00000000      0.00000000      0.00000000       8       0       0       0       2
 H               0.95883000      0.00000000      0.00000000       1       0       0       0       2
 H               0.53333000      1.05142000      0.00000000       1       0       0       0       2
 3
 energy=-.10115074894664033 cutoff=3.89000000 nneightol=1.20000000 pbc="T T T" Lattice="15.00000000       0.00000000       0.00000000       0.00000000      15.00000000       0.00000000       0.00000000       0.00000000      15.00000000" Properties=species:S:1:pos:R:3:Z:I:1:map_shift:I:3:n_neighb:I:1
 O               0.00000000      0.00000000      0.00000000       8       0       0       0       2
 H               0.95883000      0.00000000      0.00000000       1       0       0       0       2
 H               0.55000000      1.08427000      0.00000000       1       0       0       0       2
 3
 energy=-.37063647940196098 cutoff=3.89000000 nneightol=1.20000000 pbc="T T T" Lattice="15.00000000       0.00000000       0.00000000       0.00000000      15.00000000       0.00000000       0.00000000       0.00000000      15.00000000" Properties=species:S:1:pos:R:3:Z:I:1:map_shift:I:3:n_neighb:I:1
 O               0.00000000      0.00000000      0.00000000       8       0       0       0       2
 H               0.95883000      0.00000000      0.00000000       1       0       0       0       2
 H               0.56667000      1.11713000      0.00000000       1       0       0       0       2
 3
 energy=-.70796979784253367 cutoff=3.89000000 nneightol=1.20000000 pbc="T T T" Lattice="15.00000000       0.00000000       0.00000000       0.00000000      15.00000000       0.00000000       0.00000000       0.00000000      15.00000000" Properties=species:S:1:pos:R:3:Z:I:1:map_shift:I:3:n_neighb:I:1
 O               0.00000000      0.00000000      0.00000000       8       0       0       0       2
 H               0.95883000      0.00000000      0.00000000       1       0       0       0       2
 H               0.58333000      1.14998000      0.00000000       1       0       0       0       2
 3
 energy=-1.1150008964077376 cutoff=3.89000000 nneightol=1.20000000 pbc="T T T" Lattice="15.00000000       0.00000000       0.00000000       0.00000000      15.00000000       0.00000000       0.00000000       0.00000000      15.00000000" Properties=species:S:1:pos:R:3:Z:I:1:map_shift:I:3:n_neighb:I:1
 O               0.00000000      0.00000000      0.00000000       8       0       0       0       2
 H               0.95883000      0.00000000      0.00000000       1       0       0       0       2
 H               0.60000000      1.18285000      0.00000000       1       0       0       0       2
 3
 energy=-1.5915034638207501 cutoff=3.89000000 nneightol=1.20000000 pbc="T T T" Lattice="15.00000000       0.00000000       0.00000000       0.00000000      15.00000000       0.00000000       0.00000000       0.00000000      15.00000000" Properties=species:S:1:pos:R:3:Z:I:1:map_shift:I:3:n_neighb:I:1
 O               0.00000000      0.00000000      0.00000000       8       0       0       0       2
 H               0.95883000      0.00000000      0.00000000       1       0       0       0       2
 H               0.61667000      1.21570000      0.00000000       1       0       0       0       2
 3
 energy=-2.1360714321584791 cutoff=3.89000000 nneightol=1.20000000 pbc="T T T" Lattice="15.00000000       0.00000000       0.00000000       0.00000000      15.00000000       0.00000000       0.00000000       0.00000000      15.00000000" Properties=species:S:1:pos:R:3:Z:I:1:map_shift:I:3:n_neighb:I:1
 O               0.00000000      0.00000000      0.00000000       8       0       0       0       2
 H               0.95883000      0.00000000      0.00000000       1       0       0       0       2
 H               0.63333000      1.24855000      0.00000000       1       0       0       0       2
 3
 energy=1.6531415835473275 cutoff=3.89000000 nneightol=1.20000000 pbc="T T T" Lattice="15.00000000       0.00000000       0.00000000       0.00000000      15.00000000       0.00000000       0.00000000       0.00000000      15.00000000" Properties=species:S:1:pos:R:3:Z:I:1:map_shift:I:3:n_neighb:I:1
 O               0.00000000      0.00000000      0.00000000       8       0       0       0       2
 H               0.95883000      0.00000000      0.00000000       1       0       0       0       2
 H               0.28240000      0.64051000      0.00000000       1       0       0       0       2
 3
 energy=1.0219442945044683 cutoff=3.89000000 nneightol=1.20000000 pbc="T T T" Lattice="15.00000000       0.00000000       0.00000000       0.00000000      15.00000000       0.00000000       0.00000000       0.00000000      15.00000000" Properties=species:S:1:pos:R:3:Z:I:1:map_shift:I:3:n_neighb:I:1
 O               0.00000000      0.00000000      0.00000000       8       0       0       0       2
 H               0.95883000      0.00000000      0.00000000       1       0       0       0       2
 H               0.29727000      0.67421000      0.00000000       1       0       0       0       2
 3
 energy=.61899314287351714 cutoff=3.89000000 nneightol=1.20000000 pbc="T T T" Lattice="15.00000000       0.00000000       0.00000000       0.00000000      15.00000000       0.00000000       0.00000000       0.00000000      15.00000000" Properties=species:S:1:pos:R:3:Z:I:1:map_shift:I:3:n_neighb:I:1
 O               0.00000000      0.00000000      0.00000000       8       0       0       0       2
 H               0.95883000      0.00000000      0.00000000       1       0       0       0       2
 H               0.31213000      0.70792000      0.00000000       1       0       0       0       2
 3
 energy=.38358765413133256 cutoff=3.89000000 nneightol=1.20000000 pbc="T T T" Lattice="15.00000000       0.00000000       0.00000000       0.00000000      15.00000000       0.00000000       0.00000000       0.00000000      15.00000000" Properties=species:S:1:pos:R:3:Z:I:1:map_shift:I:3:n_neighb:I:1
 O               0.00000000      0.00000000      0.00000000       8       0       0       0       2
 H               0.95883000      0.00000000      0.00000000       1       0       0       0       2
 H               0.32700000      0.74164000      0.00000000       1       0       0       0       2
 3
 energy=.26626508613863820 cutoff=3.89000000 nneightol=1.20000000 pbc="T T T" Lattice="15.00000000       0.00000000       0.00000000       0.00000000      15.00000000       0.00000000       0.00000000       0.00000000      15.00000000" Properties=species:S:1:pos:R:3:Z:I:1:map_shift:I:3:n_neighb:I:1
 O               0.00000000      0.00000000      0.00000000       8       0       0       0       2
 H               0.95883000      0.00000000      0.00000000       1       0       0       0       2
 H               0.34186000      0.77535000      0.00000000       1       0       0       0       2
 3
 energy=.22744667809908847 cutoff=3.89000000 nneightol=1.20000000 pbc="T T T" Lattice="15.00000000       0.00000000       0.00000000       0.00000000      15.00000000       0.00000000       0.00000000       0.00000000      15.00000000" Properties=species:S:1:pos:R:3:Z:I:1:map_shift:I:3:n_neighb:I:1
 O               0.00000000      0.00000000      0.00000000       8       0       0       0       2
 H               0.95883000      0.00000000      0.00000000       1       0       0       0       2
 H               0.35672000      0.80906000      0.00000000       1       0       0       0       2
 3
 energy=.23611807786009820 cutoff=3.89000000 nneightol=1.20000000 pbc="T T T" Lattice="15.00000000       0.00000000       0.00000000       0.00000000      15.00000000       0.00000000       0.00000000       0.00000000      15.00000000" Properties=species:S:1:pos:R:3:Z:I:1:map_shift:I:3:n_neighb:I:1
 O               0.00000000      0.00000000      0.00000000       8       0       0       0       2
 H               0.95883000      0.00000000      0.00000000       1       0       0       0       2
 H               0.37158000      0.84277000      0.00000000       1       0       0       0       2
 3
 energy=.26777467725594661 cutoff=3.89000000 nneightol=1.20000000 pbc="T T T" Lattice="15.00000000       0.00000000       0.00000000       0.00000000      15.00000000       0.00000000       0.00000000       0.00000000      15.00000000" Properties=species:S:1:pos:R:3:Z:I:1:map_shift:I:3:n_neighb:I:1
 O               0.00000000      0.00000000      0.00000000       8       0       0       0       2
 H               0.95883000      0.00000000      0.00000000       1       0       0       0       2
 H               0.38645000      0.87648000      0.00000000       1       0       0       0       2
 3
 energy=.30256763467684422 cutoff=3.89000000 nneightol=1.20000000 pbc="T T T" Lattice="15.00000000       0.00000000       0.00000000       0.00000000      15.00000000       0.00000000       0.00000000       0.00000000      15.00000000" Properties=species:S:1:pos:R:3:Z:I:1:map_shift:I:3:n_neighb:I:1
 O               0.00000000      0.00000000      0.00000000       8       0       0       0       2
 H               0.95883000      0.00000000      0.00000000       1       0       0       0       2
 H               0.40131000      0.91020000      0.00000000       1       0       0       0       2
 3
 energy=.32400008378435174 cutoff=3.89000000 nneightol=1.20000000 pbc="T T T" Lattice="15.00000000       0.00000000       0.00000000       0.00000000      15.00000000       0.00000000       0.00000000       0.00000000      15.00000000" Properties=species:S:1:pos:R:3:Z:I:1:map_shift:I:3:n_neighb:I:1
 O               0.00000000      0.00000000      0.00000000       8       0       0       0       2