3
Lattice="15.0 0.0 0.0 0.0 15.0 0.0 0.0 0.0 15.0" Properties=species:S:1:pos:R:3 energy=3.3791473069 pbc="T T T"
O        0.00000000       0.00000000       0.00000000
H        0.70000000       0.00000000       0.00000000
H       -0.17340000       0.67818000       0.00000000
3
Lattice="15.0 0.0 0.0 0.0 15.0 0.0 0.0 0.0 15.0" Properties=species:S:1:pos:R:3 energy=2.8886115123 pbc="T T T"
O        0.00000000       0.00000000       0.00000000
H        0.70000000       0.00000000       0.00000000
H       -0.17938000       0.70157000       0.00000000
3
Lattice="15.0 0.0 0.0 0.0 15.0 0.0 0.0 0.0 15.0" Properties=species:S:1:pos:R:3 energy=2.5152538254 pbc="T T T"
O        0.00000000       0.00000000       0.00000000
H        0.70000000       0.00000000       0.00000000
H       -0.18536000       0.72496000       0.00000000
3
Lattice="15.0 0.0 0.0 0.0 15.0 0.0 0.0 0.0 15.0" Properties=species:S:1:pos:R:3 energy=2.2371399551 pbc="T T T"
O        0.00000000       0.00000000       0.00000000
H        0.70000000       0.00000000       0.00000000
H       -0.19134000       0.74834000       0.00000000
3
Lattice="15.0 0.0 0.0 0.0 15.0 0.0 0.0 0.0 15.0" Properties=species:S:1:pos:R:3 energy=2.0354693411 pbc="T T T"
O        0.00000000       0.00000000       0.00000000
H        0.70000000       0.00000000       0.00000000
H       -0.19732000       0.77172000       0.00000000
3
Lattice="15.0 0.0 0.0 0.0 15.0 0.0 0.0 0.0 15.0" Properties=species:S:1:pos:R:3 energy=1.8943768672 pbc="T T T"
O        0.00000000       0.00000000       0.00000000
H        0.70000000       0.00000000       0.00000000
H       -0.20330000       0.79511000       0.00000000
3
Lattice="15.0 0.0 0.0 0.0 15.0 0.0 0.0 0.0 15.0" Properties=species:S:1:pos:R:3 energy=1.8004754121 pbc="T T T"
O        0.00000000       0.00000000       0.00000000
H        0.70000000       0.00000000       0.00000000
H       -0.20928000       0.81850000       0.00000000
3
Lattice="15.0 0.0 0.0 0.0 15.0 0.0 0.0 0.0 15.0" Properties=species:S:1:pos:R:3 energy=1.7422661410 pbc="T T T"
O        0.00000000       0.00000000       0.00000000
H        0.70000000       0.00000000       0.00000000
H       -0.21526000       0.84189000       0.00000000
3
Lattice="15.0 0.0 0.0 0.0 15.0 0.0 0.0 0.0 15.0" Properties=species:S:1:pos:R:3 energy=1.7099406399 pbc="T T T"
O        0.00000000       0.00000000       0.00000000
H        0.70000000       0.00000000       0.00000000
H       -0.22124000       0.86526000       0.00000000
3
Lattice="15.0 0.0 0.0 0.0 15.0 0.0 0.0 0.0 15.0" Properties=species:S:1:pos:R:3 energy=1.6950432704 pbc="T T T"
O        0.00000000       0.00000000       0.00000000
H        0.70000000       0.00000000       0.00000000
H       -0.22722000       0.88865000       0.00000000
3
Lattice="15.0 0.0 0.0 0.0 15.0 0.0 0.0 0.0 15.0" Properties=species:S:1:pos:R:3 energy=1.6903985134 pbc="T T T"
O        0.00000000       0.00000000       0.00000000
H        0.70000000       0.00000000       0.00000000
H       -0.23319000       0.91204000       0.00000000
3
Lattice="15.0 0.0 0.0 0.0 15.0 0.0 0.0 0.0 15.0" Properties=species:S:1:pos:R:3 energy=1.6898146216 pbc="T T T"
O        0.00000000       0.00000000       0.00000000
H        0.70000000       0.00000000       0.00000000
H       -0.23917000       0.93543000       0.00000000
3
Lattice="15.0 0.0 0.0 0.0 15.0 0.0 0.0 0.0 15.0" Properties=species:S:1:pos:R:3 energy=1.6879707175 pbc="T T T"
O        0.00000000       0.00000000       0.00000000
H        0.70000000       0.00000000       0.00000000
H       -0.24515000       0.95881000       0.00000000
3
Lattice="15.0 0.0 0.0 0.0 15.0 0.0 0.0 0.0 15.0" Properties=species:S:1:pos:R:3 energy=1.6802849801 pbc="T T T"
O        0.00000000       0.00000000       0.00000000
H        0.70000000       0.00000000       0.00000000
H       -0.25113000       0.98219000       0.00000000
3
Lattice="15.0 0.0 0.0 0.0 15.0 0.0 0.0 0.0 15.0" Properties=species:S:1:pos:R:3 energy=1.6627940532 pbc="T T T"
O        0.00000000       0.00000000       0.00000000
H        0.70000000       0.00000000       0.00000000
H       -0.25711000       1.00558000       0.00000000
3
Lattice="15.0 0.0 0.0 0.0 15.0 0.0 0.0 0.0 15.0" Properties=species:S:1:pos:R:3 energy=1.6320778859 pbc="T T T"
O        0.00000000       0.00000000       0.00000000
H        0.70000000       0.00000000       0.00000000
H       -0.26309000       1.02897000       0.00000000
3
Lattice="15.0 0.0 0.0 0.0 15.0 0.0 0.0 0.0 15.0" Properties=species:S:1:pos:R:3 energy=1.5851741134 pbc="T T T"
O        0.00000000       0.00000000       0.00000000
H        0.70000000       0.00000000       0.00000000
H       -0.26907000       1.05236000       0.00000000
3
Lattice="15.0 0.0 0.0 0.0 15.0 0.0 0.0 0.0 15.0" Properties=species:S:1:pos:R:3 energy=1.5195761178 pbc="T T T"
O        0.00000000       0.00000000       0.00000000
H        0.70000000       0.00000000       0.00000000
H       -0.27505000       1.07573000       0.00000000
3
Lattice="15.0 0.0 0.0 0.0 15.0 0.0 0.0 0.0 15.0" Properties=species:S:1:pos:R:3 energy=1.4329498943 pbc="T T T"
O        0.00000000       0.00000000       0.00000000
H        0.70000000       0.00000000       0.00000000
H       -0.28103000       1.09912000       0.00000000
3
Lattice="15.0 0.0 0.0 0.0 15.0 0.0 0.0 0.0 15.0" Properties=species:S:1:pos:R:3 energy=1.3234045837 pbc="T T T"
O        0.00000000       0.00000000       0.00000000
H        0.70000000       0.00000000       0.00000000
H       -0.28701000       1.12251000       0.00000000
3
Lattice="15.0 0.0 0.0 0.0 15.0 0.0 0.0 0.0 15.0" Properties=species:S:1:pos:R:3 energy=1.1892571944 pbc="T T T"
O        0.00000000       0.00000000       0.00000000
H        0.70000000       0.00000000       0.00000000
H       -0.29299000       1.14590000       0.00000000
3
Lattice="15.0 0.0 0.0 0.0 15.0 0.0 0.0 0.0 15.0" Properties=species:S:1:pos:R:3 energy=1.0291142653 pbc="T T T"
O        0.00000000       0.00000000       0.00000000
H        0.70000000       0.00000000       0.00000000
H       -0.29897000       1.16928000       0.00000000
3
Lattice="15.0 0.0 0.0 0.0 15.0 0.0 0.0 0.0 15.0" Properties=species:S:1:pos:R:3 energy=0.8416555206 pbc="T T T"
O        0.00000000       0.00000000       0.00000000
H        0.70000000       0.00000000       0.00000000
H       -0.30495000       1.19266000       0.00000000
3
Lattice="15.0 0.0 0.0 0.0 15.0 0.0 0.0 0.0 15.0" Properties=species:S:1:pos:R:3 energy=0.6256829743 pbc="T T T"
O        0.00000000       0.00000000       0.00000000
H        0.70000000       0.00000000       0.00000000
H       -0.31093000       1.21605000       0.00000000
3
Lattice="15.0 0.0 0.0 0.0 15.0 0.0 0.0 0.0 15.0" Properties=species:S:1:pos:R:3 energy=0.3803050525 pbc="T T T"
O        0.00000000       0.00000000       0.00000000
H        0.70000000       0.00000000       0.00000000
H       -0.31691000       1.23944000       0.00000000
3
Lattice="15.0 0.0 0.0 0.0 15.0 0.0 0.0 0.0 15.0" Properties=species:S:1:pos:R:3 energy=0.1048037901 pbc="T T T"
O        0.00000000       0.00000000       0.00000000
H        0.70000000       0.00000000       0.00000000
H       -0.32289000       1.26282000       0.00000000
3
Lattice="15.0 0.0 0.0 0.0 15.0 0.0 0.0 0.0 15.0" Properties=species:S:1:pos:R:3 energy=-0.2017664205 pbc="T T T"
O        0.00000000       0.00000000       0.00000000
H        0.70000000       0.00000000       0.00000000
H       -0.32887000       1.28621000       0.00000000
3
Lattice="15.0 0.0 0.0 0.0 15.0 0.0 0.0 0.0 15.0" Properties=species:S:1:pos:R:3 energy=-0.5397501175 pbc="T T T"
O        0.00000000       0.00000000       0.00000000
H        0.70000000       0.00000000       0.00000000
H       -0.33484000       1.30959000       0.00000000
3
Lattice="15.0 0.0 0.0 0.0 15.0 0.0 0.0 0.0 15.0" Properties=species:S:1:pos:R:3 energy=-0.9100301527 pbc="T T T"
O        0.00000000       0.00000000       0.00000000
H        0.70000000       0.00000000       0.00000000
H       -0.34082000       1.33298000       0.00000000
3
Lattice="15.0 0.0 0.0 0.0 15.0 0.0 0.0 0.0 15.0" Properties=species:S:1:pos:R:3 energy=-1.3129137665 pbc="T T T"
O        0.00000000       0.00000000       0.00000000
H        0.70000000       0.00000000       0.00000000
H       -0.34680000       1.35637000       0.00000000
3
Lattice="15.0 0.0 0.0 0.0 15.0 0.0 0.0 0.0 15.0" Properties=species:S:1:pos:R:3 energy=2.8886742763 pbc="T T T"
O        0.00000000       0.00000000       0.00000000
H        0.72414000       0.00000000       0.00000000
H       -0.17340000       0.67818000       0.00000000
3
Lattice="15.0 0.0 0.0 0.0 15.0 0.0 0.0 0.0 15.0" Properties=species:S:1:pos:R:3 energy=2.3978911509 pbc="T T T"
O        0.00000000       0.00000000       0.00000000
H        0.72414000       0.00000000       0.00000000
H       -0.17938000       0.70157000       0.00000000
3
Lattice="15.0 0.0 0.0 0.0 15.0 0.0 0.0 0.0 15.0" Properties=species:S:1:pos:R:3 energy=2.0243336418 pbc="T T T"
O        0.00000000       0.00000000       0.00000000
H        0.72414000       0.00000000       0.00000000
H       -0.18536000       0.72496000       0.00000000
3
Lattice="15.0 0.0 0.0 0.0 15.0 0.0 0.0 0.0 15.0" Properties=species:S:1:pos:R:3 energy=1.7460603999 pbc="T T T"
O        0.00000000       0.00000000       0.00000000
H        0.72414000       0.00000000       0.00000000
H       -0.19134000       0.74834000       0.00000000
3
Lattice="15.0 0.0 0.0 0.0 15.0 0.0 0.0 0.0 15.0" Properties=species:S:1:pos:R:3 energy=1.5442648884 pbc="T T T"
O        0.00000000       0.00000000       0.00000000
H        0.72414000       0.00000000       0.00000000
H       -0.19732000       0.77172000       0.00000000
3
Lattice="15.0 0.0 0.0 0.0 15.0 0.0 0.0 0.0 15.0" Properties=species:S:1:pos:R:3 energy=1.4030770620 pbc="T T T"
O        0.00000000       0.00000000       0.00000000
H        0.72414000       0.00000000       0.00000000
H       -0.20330000       0.79511000       0.00000000
3
Lattice="15.0 0.0 0.0 0.0 15.0 0.0 0.0 0.0 15.0" Properties=species:S:1:pos:R:3 energy=1.3091055013 pbc="T T T"
O        0.00000000       0.00000000       0.00000000
H        0.72414000       0.00000000       0.00000000
H       -0.20928000       0.81850000       0.00000000
3
Lattice="15.0 0.0 0.0 0.0 15.0 0.0 0.0 0.0 15.0" Properties=species:S:1:pos:R:3 energy=1.2508470065 pbc="T T T"
O        0.00000000       0.00000000       0.00000000
H        0.72414000       0.00000000       0.00000000
H       -0.21526000       0.84189000       0.00000000
3
Lattice="15.0 0.0 0.0 0.0 15.0 0.0 0.0 0.0 15.0" Properties=species:S:1:pos:R:3 energy=1.2184885999 pbc="T T T"
O        0.00000000       0.00000000       0.00000000
H        0.72414000       0.00000000       0.00000000
H       -0.22124000       0.86526000       0.00000000
3
Lattice="15.0 0.0 0.0 0.0 15.0 0.0 0.0 0.0 15.0" Properties=species:S:1:pos:R:3 energy=1.2035696207 pbc="T T T"
O        0.00000000       0.00000000       0.00000000
H        0.72414000       0.00000000       0.00000000
H       -0.22722000       0.88865000       0.00000000
3
Lattice="15.0 0.0 0.0 0.0 15.0 0.0 0.0 0.0 15.0" Properties=species:S:1:pos:R:3 energy=1.1989095255 pbc="T T T"
O        0.00000000       0.00000000       0.00000000
H        0.72414000       0.00000000       0.00000000
H       -0.23319000       0.91204000       0.00000000
3
Lattice="15.0 0.0 0.0 0.0 15.0 0.0 0.0 0.0 15.0" Properties=species:S:1:pos:R:3 energy=1.1983115372 pbc="T T T"
O        0.00000000       0.00000000       0.00000000
H        0.72414000       0.00000000       0.00000000
H       -0.23917000       0.93543000       0.00000000
3
Lattice="15.0 0.0 0.0 0.0 15.0 0.0 0.0 0.0 15.0" Properties=species:S:1:pos:R:3 energy=1.1964501690 pbc="T T T"
O        0.00000000       0.00000000       0.00000000
H        0.72414000       0.00000000       0.00000000
H       -0.24515000       0.95881000       0.00000000
3
Lattice="15.0 0.0 0.0 0.0 15.0 0.0 0.0 0.0 15.0" Properties=species:S:1:pos:R:3 energy=1.1887397346 pbc="T T T"
O        0.00000000       0.00000000       0.00000000
H        0.72414000       0.00000000       0.00000000
H       -0.25113000       0.98219000       0.00000000
3
Lattice="15.0 0.0 0.0 0.0 15.0 0.0 0.0 0.0 15.0" Properties=species:S:1:pos:R:3 energy=1.1712139162 pbc="T T T"
O        0.00000000       0.00000000       0.00000000
H        0.72414000       0.00000000       0.00000000
H       -0.25711000       1.00558000       0.00000000
3
Lattice="15.0 0.0 0.0 0.0 15.0 0.0 0.0 0.0 15.0" Properties=species:S:1:pos:R:3 energy=1.1404506423 pbc="T T T"
O        0.00000000       0.00000000       0.00000000
H        0.72414000       0.00000000       0.00000000
H       -0.26309000       1.02897000       0.00000000
3
Lattice="15.0 0.0 0.0 0.0 15.0 0.0 0.0 0.0 15.0" Properties=species:S:1:pos:R:3 energy=1.0934864541 pbc="T T T"
O        0.00000000       0.00000000       0.00000000
H        0.72414000       0.00000000       0.00000000
H       -0.26907000       1.05236000       0.00000000
3
Lattice="15.0 0.0 0.0 0.0 15.0 0.0 0.0 0.0 15.0" Properties=species:S:1:pos:R:3 energy=1.0278144119 pbc="T T T"
O        0.00000000       0.00000000       0.00000000
H        0.72414000       0.00000000       0.00000000
H       -0.27505000       1.07573000       0.00000000
3
Lattice="15.0 0.0 0.0 0.0 15.0 0.0 0.0 0.0 15.0" Properties=species:S:1:pos:R:3 energy=0.9411009070 pbc="T T T"
O        0.00000000       0.00000000       0.00000000
H        0.72414000       0.00000000       0.00000000
H       -0.28103000       1.09912000       0.00000000
3
Lattice="15.0 0.0 0.0 0.0 15.0 0.0 0.0 0.0 15.0" Properties=species:S:1:pos:R:3 energy=0.8314560153 pbc="T T T"
O        0.00000000       0.00000000       0.00000000
H        0.72414000       0.00000000       0.00000000
H       -0.28701000       1.12251000       0.00000000
3
Lattice="15.0 0.0 0.0 0.0 15.0 0.0 0.0 0.0 15.0" Properties=species:S:1:pos:R:3 energy=0.6971979156 pbc="T T T"
O        0.00000000       0.00000000       0.00000000
H        0.72414000       0.00000000       0.00000000
H       -0.29299000       1.14590000       0.00000000
3
Lattice="15.0 0.0 0.0 0.0 15.0 0.0 0.0 0.0 15.0" Properties=species:S:1:pos:R:3 energy=0.5369346714 pbc="T T T"
O        0.00000000       0.00000000       0.00000000
H        0.72414000       0.00000000       0.00000000
H       -0.29897000       1.16928000       0.00000000
3
Lattice="15.0 0.0 0.0 0.0 15.0 0.0 0.0 0.0 15.0" Properties=species:S:1:pos:R:3 energy=0.3493477012 pbc="T T T"
O        0.00000000       0.00000000       0.00000000
H        0.72414000       0.00000000       0.00000000
H       -0.30495000       1.19266000       0.00000000
3
Lattice="15.0 0.0 0.0 0.0 15.0 0.0 0.0 0.0 15.0" Properties=species:S:1:pos:R:3 energy=0.1332408059 pbc="T T T"
O        0.00000000       0.00000000       0.00000000
H        0.72414000       0.00000000       0.00000000
H       -0.31093000       1.21605000       0.00000000
3
Lattice="15.0 0.0 0.0 0.0 15.0 0.0 0.0 0.0 15.0" Properties=species:S:1:pos:R:3 energy=-0.1122757697 pbc="T T T"
O        0.00000000       0.00000000       0.00000000
H        0.72414000       0.00000000       0.00000000
H       -0.31691000       1.23944000       0.00000000
3
Lattice="15.0 0.0 0.0 0.0 15.0 0.0 0.0 0.0 15.0" Properties=species:S:1:pos:R:3 energy=-0.3879181694 pbc="T T T"
O        0.00000000       0.00000000       0.00000000
H        0.72414000       0.00000000       0.00000000
H       -0.32289000       1.26282000       0.00000000
3
Lattice="15.0 0.0 0.0 0.0 15.0 0.0 0.0 0.0 15.0" Properties=species:S:1:pos:R:3 energy=-0.6946301631 pbc="T T T"
O        0.00000000       0.00000000       0.00000000
H        0.72414000       0.00000000       0.00000000
H       -0.32887000       1.28621000       0.00000000
3
Lattice="15.0 0.0 0.0 0.0 15.0 0.0 0.0 0.0 15.0" Properties=species:S:1:pos:R:3 energy=-1.0327542365 pbc="T T T"
O        0.00000000       0.00000000       0.00000000
H        0.72414000       0.00000000       0.00000000
H       -0.33484000       1.30959000       0.00000000
3
Lattice="15.0 0.0 0.0 0.0 15.0 0.0 0.0 0.0 15.0" Properties=species:S:1:pos:R:3 energy=-1.4031721064 pbc="T T T"
O        0.00000000       0.00000000       0.00000000
H        0.72414000       0.00000000       0.00000000
H       -0.34082000       1.33298000       0.00000000
3
Lattice="15.0 0.0 0.0 0.0 15.0 0.0 0.0 0.0 15.0" Properties=species:S:1:pos:R:3 energy=-1.8061890842 pbc="T T T"
O        0.00000000       0.00000000       0.00000000
H        0.72414000       0.00000000       0.00000000
H       -0.34680000       1.35637000       0.00000000
3
Lattice="15.0 0.0 0.0 0.0 15.0 0.0 0.0 0.0 15.0" Properties=species:S:1:pos:R:3 energy=2.5153554298 pbc="T T T"
O        0.00000000       0.00000000       0.00000000
H        0.74828000       0.00000000       0.00000000
H       -0.17340000       0.67818000       0.00000000
3
Lattice="15.0 0.0 0.0 0.0 15.0 0.0 0.0 0.0 15.0" Properties=species:S:1:pos:R:3 energy=2.0243724685 pbc="T T T"
O        0.00000000       0.00000000       0.00000000
H        0.74828000       0.00000000       0.00000000
H       -0.17938000       0.70157000       0.00000000
3
Lattice="15.0 0.0 0.0 0.0 15.0 0.0 0.0 0.0 15.0" Properties=species:S:1:pos:R:3 energy=1.6506601691 pbc="T T T"
O        0.00000000       0.00000000       0.00000000
H        0.74828000       0.00000000       0.00000000
H       -0.18536000       0.72496000       0.00000000
3
Lattice="15.0 0.0 0.0 0.0 15.0 0.0 0.0 0.0 15.0" Properties=species:S:1:pos:R:3 energy=1.3722701686 pbc="T T T"
O        0.00000000       0.00000000       0.00000000
H        0.74828000       0.00000000       0.00000000
H       -0.19134000       0.74834000       0.00000000
3
Lattice="15.0 0.0 0.0 0.0 15.0 0.0 0.0 0.0 15.0" Properties=species:S:1:pos:R:3 energy=1.1703899156 pbc="T T T"
O        0.00000000       0.00000000       0.00000000
H        0.74828000       0.00000000       0.00000000
H       -0.19732000       0.77172000       0.00000000
3
Lattice="15.0 0.0 0.0 0.0 15.0 0.0 0.0 0.0 15.0" Properties=species:S:1:pos:R:3 energy=1.0291443212 pbc="T T T"
O        0.00000000       0.00000000       0.00000000
H        0.74828000       0.00000000       0.00000000
H       -0.20330000       0.79511000       0.00000000
3
Lattice="15.0 0.0 0.0 0.0 15.0 0.0 0.0 0.0 15.0" Properties=species:S:1:pos:R:3 energy=0.9351375316 pbc="T T T"
O        0.00000000       0.00000000       0.00000000
H        0.74828000       0.00000000       0.00000000
H       -0.20928000       0.81850000       0.00000000
3
Lattice="15.0 0.0 0.0 0.0 15.0 0.0 0.0 0.0 15.0" Properties=species:S:1:pos:R:3 energy=0.8768619118 pbc="T T T"
O        0.00000000       0.00000000       0.00000000
H        0.74828000       0.00000000       0.00000000
H       -0.21526000       0.84189000       0.00000000
3
Lattice="15.0 0.0 0.0 0.0 15.0 0.0 0.0 0.0 15.0" Properties=species:S:1:pos:R:3 energy=0.8444999442 pbc="T T T"
O        0.00000000       0.00000000       0.00000000
H        0.74828000       0.00000000       0.00000000
H       -0.22124000       0.86526000       0.00000000
3
Lattice="15.0 0.0 0.0 0.0 15.0 0.0 0.0 0.0 15.0" Properties=species:S:1:pos:R:3 energy=0.8295861071 pbc="T T T"
O        0.00000000       0.00000000       0.00000000
H        0.74828000       0.00000000       0.00000000
H       -0.22722000       0.88865000       0.00000000
3
Lattice="15.0 0.0 0.0 0.0 15.0 0.0 0.0 0.0 15.0" Properties=species:S:1:pos:R:3 energy=0.8249350713 pbc="T T T"
O        0.00000000       0.00000000       0.00000000
H        0.74828000       0.00000000       0.00000000
H       -0.23319000       0.91204000       0.00000000
3
Lattice="15.0 0.0 0.0 0.0 15.0 0.0 0.0 0.0 15.0" Properties=species:S:1:pos:R:3 energy=0.8243453788 pbc="T T T"
O        0.00000000       0.00000000       0.00000000
H        0.74828000       0.00000000       0.00000000
H       -0.23917000       0.93543000       0.00000000
3
Lattice="15.0 0.0 0.0 0.0 15.0 0.0 0.0 0.0 15.0" Properties=species:S:1:pos:R:3 energy=0.8224872569 pbc="T T T"
O        0.00000000       0.00000000       0.00000000
H        0.74828000       0.00000000       0.00000000
H       -0.24515000       0.95881000       0.00000000
3
Lattice="15.0 0.0 0.0 0.0 15.0 0.0 0.0 0.0 15.0" Properties=species:S:1:pos:R:3 energy=0.8147714973 pbc="T T T"
O        0.00000000       0.00000000       0.00000000
H        0.74828000       0.00000000       0.00000000
H       -0.25113000       0.98219000       0.00000000
3
Lattice="15.0 0.0 0.0 0.0 15.0 0.0 0.0 0.0 15.0" Properties=species:S:1:pos:R:3 energy=0.7972291389 pbc="T T T"
O        0.00000000       0.00000000       0.00000000
H        0.74828000       0.00000000       0.00000000
H       -0.25711000       1.00558000       0.00000000
3
Lattice="15.0 0.0 0.0 0.0 15.0 0.0 0.0 0.0 15.0" Properties=species:S:1:pos:R:3 energy=0.7664363152 pbc="T T T"
O        0.00000000       0.00000000       0.00000000
H        0.74828000       0.00000000       0.00000000
H       -0.26309000       1.02897000       0.00000000
3
Lattice="15.0 0.0 0.0 0.0 15.0 0.0 0.0 0.0 15.0" Properties=species:S:1:pos:R:3 energy=0.7194286558 pbc="T T T"
O        0.00000000       0.00000000       0.00000000
H        0.74828000       0.00000000       0.00000000
H       -0.26907000       1.05236000       0.00000000
3
Lattice="15.0 0.0 0.0 0.0 15.0 0.0 0.0 0.0 15.0" Properties=species:S:1:pos:R:3 energy=0.6536990165 pbc="T T T"
O        0.00000000       0.00000000       0.00000000
H        0.74828000       0.00000000       0.00000000
H       -0.27505000       1.07573000       0.00000000
3
Lattice="15.0 0.0 0.0 0.0 15.0 0.0 0.0 0.0 15.0" Properties=species:S:1:pos:R:3 energy=0.5669142738 pbc="T T T"
O        0.00000000       0.00000000       0.00000000
H        0.74828000       0.00000000       0.00000000
H       -0.28103000       1.09912000       0.00000000
3
Lattice="15.0 0.0 0.0 0.0 15.0 0.0 0.0 0.0 15.0" Properties=species:S:1:pos:R:3 energy=0.4571853823 pbc="T T T"
O        0.00000000       0.00000000       0.00000000
H        0.74828000       0.00000000       0.00000000
H       -0.28701000       1.12251000       0.00000000
3
Lattice="15.0 0.0 0.0 0.0 15.0 0.0 0.0 0.0 15.0" Properties=species:S:1:pos:R:3 energy=0.3228317370 pbc="T T T"
O        0.00000000       0.00000000       0.00000000
H        0.74828000       0.00000000       0.00000000
H       -0.29299000       1.14590000       0.00000000
3
Lattice="15.0 0.0 0.0 0.0 15.0 0.0 0.0 0.0 15.0" Properties=species:S:1:pos:R:3 energy=0.1624628556 pbc="T T T"
O        0.00000000       0.00000000       0.00000000
H        0.74828000       0.00000000       0.00000000
H       -0.29897000       1.16928000       0.00000000
3
Lattice="15.0 0.0 0.0 0.0 15.0 0.0 0.0 0.0 15.0" Properties=species:S:1:pos:R:3 energy=-0.0252382146 pbc="T T T"
O        0.00000000       0.00000000       0.00000000
H        0.74828000       0.00000000       0.00000000
H       -0.30495000       1.19266000       0.00000000
3
Lattice="15.0 0.0 0.0 0.0 15.0 0.0 0.0 0.0 15.0" Properties=species:S:1:pos:R:3 energy=-0.2414659512 pbc="T T T"
O        0.00000000       0.00000000       0.00000000
H        0.74828000       0.00000000       0.00000000
H       -0.31093000       1.21605000       0.00000000
3
Lattice="15.0 0.0 0.0 0.0 15.0 0.0 0.0 0.0 15.0" Properties=species:S:1:pos:R:3 energy=-0.4871083723 pbc="T T T"
O        0.00000000       0.00000000       0.00000000
H        0.74828000       0.00000000       0.00000000
H       -0.31691000       1.23944000       0.00000000
3
Lattice="15.0 0.0 0.0 0.0 15.0 0.0 0.0 0.0 15.0" Properties=species:S:1:pos:R:3 energy=-0.7628798845 pbc="T T T"
O        0.00000000       0.00000000       0.00000000
H        0.74828000       0.00000000       0.00000000
H       -0.32289000       1.26282000       0.00000000
3
Lattice="15.0 0.0 0.0 0.0 15.0 0.0 0.0 0.0 15.0" Properties=species:S:1:pos:R:3 energy=-1.0697224747 pbc="T T T"
O        0.00000000       0.00000000       0.00000000
H        0.74828000       0.00000000       0.00000000
H       -0.32887000       1.28621000       0.00000000
3
Lattice="15.0 0.0 0.0 0.0 15.0 0.0 0.0 0.0 15.0" Properties=species:S:1:pos:R:3 energy=-1.4079766629 pbc="T T T"
O        0.00000000       0.00000000       0.00000000
H        0.74828000       0.00000000       0.00000000
H       -0.33484000       1.30959000       0.00000000
3
Lattice="15.0 0.0 0.0 0.0 15.0 0.0 0.0 0.0 15.0" Properties=species:S:1:pos:R:3 energy=-1.7785231731 pbc="T T T"
O        0.00000000       0.00000000       0.00000000
H        0.74828000       0.00000000       0.00000000
H       -0.34082000       1.33298000       0.00000000
3
Lattice="15.0 0.0 0.0 0.0 15.0 0.0 0.0 0.0 15.0" Properties=species:S:1:pos:R:3 energy=-2.1816650820 pbc="T T T"
O        0.00000000       0.00000000       0.00000000
H        0.74828000       0.00000000       0.00000000
H       -0.34680000       1.35637000       0.00000000
3
Lattice="15.0 0.0 0.0 0.0 15.0 0.0 0.0 0.0 15.0" Properties=species:S:1:pos:R:3 energy=2.2372668708 pbc="T T T"
O        0.00000000       0.00000000       0.00000000
H        0.77241000       0.00000000       0.00000000
H       -0.17340000       0.67818000       0.00000000
3
Lattice="15.0 0.0 0.0 0.0 15.0 0.0 0.0 0.0 15.0" Properties=species:S:1:pos:R:3 energy=1.7461244556 pbc="T T T"
O        0.00000000       0.00000000       0.00000000
H        0.77241000       0.00000000       0.00000000
H       -0.17938000       0.70157000       0.00000000
3
Lattice="15.0 0.0 0.0 0.0 15.0 0.0 0.0 0.0 15.0" Properties=species:S:1:pos:R:3 energy=1.3722953207 pbc="T T T"
O        0.00000000       0.00000000       0.00000000
H        0.77241000       0.00000000       0.00000000
H       -0.18536000       0.72496000       0.00000000
3
Lattice="15.0 0.0 0.0 0.0 15.0 0.0 0.0 0.0 15.0" Properties=species:S:1:pos:R:3 energy=1.0938239967 pbc="T T T"
O        0.00000000       0.00000000       0.00000000
H        0.77241000       0.00000000       0.00000000
H       -0.19134000       0.74834000       0.00000000
3
Lattice="15.0 0.0 0.0 0.0 15.0 0.0 0.0 0.0 15.0" Properties=species:S:1:pos:R:3 energy=0.8918917784 pbc="T T T"
O        0.00000000       0.00000000       0.00000000
H        0.77241000       0.00000000       0.00000000
H       -0.19732000       0.77172000       0.00000000
3
Lattice="15.0 0.0 0.0 0.0 15.0 0.0 0.0 0.0 15.0" Properties=species:S:1:pos:R:3 energy=0.7506183543 pbc="T T T"
O        0.00000000       0.00000000       0.00000000
H        0.77241000       0.00000000       0.00000000
H       -0.20330000       0.79511000       0.00000000
3
Lattice="15.0 0.0 0.0 0.0 15.0 0.0 0.0 0.0 15.0" Properties=species:S:1:pos:R:3 energy=0.6566033136 pbc="T T T"
O        0.00000000       0.00000000       0.00000000
H        0.77241000       0.00000000       0.00000000
H       -0.20928000       0.81850000       0.00000000
3
Lattice="15.0 0.0 0.0 0.0 15.0 0.0 0.0 0.0 15.0" Properties=species:S:1:pos:R:3 energy=0.5983345694 pbc="T T T"
O        0.00000000       0.00000000       0.00000000
H        0.77241000       0.00000000       0.00000000
H       -0.21526000       0.84189000       0.00000000
3
Lattice="15.0 0.0 0.0 0.0 15.0 0.0 0.0 0.0 15.0" Properties=species:S:1:pos:R:3 energy=0.5659901792 pbc="T T T"
O        0.00000000       0.00000000       0.00000000
H        0.77241000       0.00000000       0.00000000
H       -0.22124000       0.86526000       0.00000000
3
Lattice="15.0 0.0 0.0 0.0 15.0 0.0 0.0 0.0 15.0" Properties=species:S:1:pos:R:3 energy=0.5511000670 pbc="T T T"
O        0.00000000       0.00000000       0.00000000
H        0.77241000       0.00000000       0.00000000
H       -0.22722000       0.88865000       0.00000000
3
Lattice="15.0 0.0 0.0 0.0 15.0 0.0 0.0 0.0 15.0" Properties=species:S:1:pos:R:3 energy=0.5464744612 pbc="T T T"
O        0.00000000       0.00000000       0.00000000
H        0.77241000       0.00000000       0.00000000
H       -0.23319000       0.91204000       0.00000000
3
Lattice="15.0 0.0 0.0 0.0 15.0 0.0 0.0 0.0 15.0" Properties=species:S:1:pos:R:3 energy=0.5459077072 pbc="T T T"
O        0.00000000       0.00000000       0.00000000
H        0.77241000       0.00000000       0.00000000
H       -0.23917000       0.93543000       0.00000000
3
Lattice="15.0 0.0 0.0 0.0 15.0 0.0 0.0 0.0 15.0" Properties=species:S:1:pos:R:3 energy=0.5440661956 pbc="T T T"
O        0.00000000       0.00000000       0.00000000
H        0.77241000       0.00000000       0.00000000
H       -0.24515000       0.95881000       0.00000000
3
Lattice="15.0 0.0 0.0 0.0 15.0 0.0 0.0 0.0 15.0" Properties=species:S:1:pos:R:3 energy=0.5363576256 pbc="T T T"
O        0.00000000       0.00000000       0.00000000
H        0.77241000       0.00000000       0.00000000
H       -0.25113000       0.98219000       0.00000000
3
Lattice="15.0 0.0 0.0 0.0 15.0 0.0 0.0 0.0 15.0" Properties=species:S:1:pos:R:3 energy=0.5188107495 pbc="T T T"
O        0.00000000       0.00000000       0.00000000
H        0.77241000       0.00000000       0.00000000
H       -0.25711000       1.00558000       0.00000000
3
Lattice="15.0 0.0 0.0 0.0 15.0 0.0 0.0 0.0 15.0" Properties=species:S:1:pos:R:3 energy=0.4880001860 pbc="T T T"
O        0.00000000       0.00000000       0.00000000
H        0.77241000       0.00000000       0.00000000
H       -0.26309000       1.02897000       0.00000000
3
Lattice="15.0 0.0 0.0 0.0 15.0 0.0 0.0 0.0 15.0" Properties=species:S:1:pos:R:3 energy=0.4409608301 pbc="T T T"
O        0.00000000       0.00000000       0.00000000
H        0.77241000       0.00000000       0.00000000
H       -0.26907000       1.05236000       0.00000000
3
Lattice="15.0 0.0 0.0 0.0 15.0 0.0 0.0 0.0 15.0" Properties=species:S:1:pos:R:3 energy=0.3751854037 pbc="T T T"
O        0.00000000       0.00000000       0.00000000
H        0.77241000       0.00000000       0.00000000
H       -0.27505000       1.07573000       0.00000000
3
Lattice="15.0 0.0 0.0 0.0 15.0 0.0 0.0 0.0 15.0" Properties=species:S:1:pos:R:3 energy=0.2883414049 pbc="T T T"
O        0.00000000       0.00000000       0.00000000