3
Lattice="15.0 0.0 0.0 0.0 15.0 0.0 0.0 0.0 15.0" Properties=species:S:1:pos:R:3 energy=1.4476302463 pbc="T T T"
O        0.00000000       0.00000000       0.00000000
H        0.70000000       0.00000000       0.00000000
H        0.35000000       0.60622000       0.00000000
3
Lattice="15.0 0.0 0.0 0.0 15.0 0.0 0.0 0.0 15.0" Properties=species:S:1:pos:R:3 energy=1.3260088176 pbc="T T T"
O        0.00000000       0.00000000       0.00000000
H        0.70000000       0.00000000       0.00000000
H        0.36842000       0.63812000       0.00000000
3
Lattice="15.0 0.0 0.0 0.0 15.0 0.0 0.0 0.0 15.0" Properties=species:S:1:pos:R:3 energy=1.1999653116 pbc="T T T"
O        0.00000000       0.00000000       0.00000000
H        0.70000000       0.00000000       0.00000000
H        0.38684000       0.67003000       0.00000000
3
Lattice="15.0 0.0 0.0 0.0 15.0 0.0 0.0 0.0 15.0" Properties=species:S:1:pos:R:3 energy=1.0680185205 pbc="T T T"
O        0.00000000       0.00000000       0.00000000
H        0.70000000       0.00000000       0.00000000
H        0.40527000       0.70194000       0.00000000
3
Lattice="15.0 0.0 0.0 0.0 15.0 0.0 0.0 0.0 15.0" Properties=species:S:1:pos:R:3 energy=0.9351279783 pbc="T T T"
O        0.00000000       0.00000000       0.00000000
H        0.70000000       0.00000000       0.00000000
H        0.42369000       0.73384000       0.00000000
3
Lattice="15.0 0.0 0.0 0.0 15.0 0.0 0.0 0.0 15.0" Properties=species:S:1:pos:R:3 energy=0.8021401535 pbc="T T T"
O        0.00000000       0.00000000       0.00000000
H        0.70000000       0.00000000       0.00000000
H        0.44211000       0.76575000       0.00000000
3
Lattice="15.0 0.0 0.0 0.0 15.0 0.0 0.0 0.0 15.0" Properties=species:S:1:pos:R:3 energy=0.6705999397 pbc="T T T"
O        0.00000000       0.00000000       0.00000000
H        0.70000000       0.00000000       0.00000000
H        0.46053000       0.79765000       0.00000000
3
Lattice="15.0 0.0 0.0 0.0 15.0 0.0 0.0 0.0 15.0" Properties=species:S:1:pos:R:3 energy=0.5415912318 pbc="T T T"
O        0.00000000       0.00000000       0.00000000
H        0.70000000       0.00000000       0.00000000
H        0.47895000       0.82956000       0.00000000
3
Lattice="15.0 0.0 0.0 0.0 15.0 0.0 0.0 0.0 15.0" Properties=species:S:1:pos:R:3 energy=0.4160859102 pbc="T T T"
O        0.00000000       0.00000000       0.00000000
H        0.70000000       0.00000000       0.00000000
H        0.49737000       0.86147000       0.00000000
3
Lattice="15.0 0.0 0.0 0.0 15.0 0.0 0.0 0.0 15.0" Properties=species:S:1:pos:R:3 energy=0.2946838823 pbc="T T T"
O        0.00000000       0.00000000       0.00000000
H        0.70000000       0.00000000       0.00000000
H        0.51579000       0.89337000       0.00000000
3
Lattice="15.0 0.0 0.0 0.0 15.0 0.0 0.0 0.0 15.0" Properties=species:S:1:pos:R:3 energy=0.1777221275 pbc="T T T"
O        0.00000000       0.00000000       0.00000000
H        0.70000000       0.00000000       0.00000000
H        0.53421000       0.92528000       0.00000000
3
Lattice="15.0 0.0 0.0 0.0 15.0 0.0 0.0 0.0 15.0" Properties=species:S:1:pos:R:3 energy=0.0654895752 pbc="T T T"
O        0.00000000       0.00000000       0.00000000
H        0.70000000       0.00000000       0.00000000
H        0.55263000       0.95718000       0.00000000
3
Lattice="15.0 0.0 0.0 0.0 15.0 0.0 0.0 0.0 15.0" Properties=species:S:1:pos:R:3 energy=-0.0419034416 pbc="T T T"
O        0.00000000       0.00000000       0.00000000
H        0.70000000       0.00000000       0.00000000
H        0.57106000       0.98910000       0.00000000
3
Lattice="15.0 0.0 0.0 0.0 15.0 0.0 0.0 0.0 15.0" Properties=species:S:1:pos:R:3 energy=-0.1442397748 pbc="T T T"
O        0.00000000       0.00000000       0.00000000
H        0.70000000       0.00000000       0.00000000
H        0.58948000       1.02100000       0.00000000
3
Lattice="15.0 0.0 0.0 0.0 15.0 0.0 0.0 0.0 15.0" Properties=species:S:1:pos:R:3 energy=-0.2417151746 pbc="T T T"
O        0.00000000       0.00000000       0.00000000
H        0.70000000       0.00000000       0.00000000
H        0.60790000       1.05291000       0.00000000
3
Lattice="15.0 0.0 0.0 0.0 15.0 0.0 0.0 0.0 15.0" Properties=species:S:1:pos:R:3 energy=-0.3341963631 pbc="T T T"
O        0.00000000       0.00000000       0.00000000
H        0.70000000       0.00000000       0.00000000
H        0.62632000       1.08481000       0.00000000
3
Lattice="15.0 0.0 0.0 0.0 15.0 0.0 0.0 0.0 15.0" Properties=species:S:1:pos:R:3 energy=-0.4219049782 pbc="T T T"
O        0.00000000       0.00000000       0.00000000
H        0.70000000       0.00000000       0.00000000
H        0.64474000       1.11671000       0.00000000
3
Lattice="15.0 0.0 0.0 0.0 15.0 0.0 0.0 0.0 15.0" Properties=species:S:1:pos:R:3 energy=-0.5048601616 pbc="T T T"
O        0.00000000       0.00000000       0.00000000
H        0.70000000       0.00000000       0.00000000
H        0.66316000       1.14863000       0.00000000
3
Lattice="15.0 0.0 0.0 0.0 15.0 0.0 0.0 0.0 15.0" Properties=species:S:1:pos:R:3 energy=-0.5832878923 pbc="T T T"
O        0.00000000       0.00000000       0.00000000
H        0.70000000       0.00000000       0.00000000
H        0.68158000       1.18053000       0.00000000
3
Lattice="15.0 0.0 0.0 0.0 15.0 0.0 0.0 0.0 15.0" Properties=species:S:1:pos:R:3 energy=-0.6571710922 pbc="T T T"
O        0.00000000       0.00000000       0.00000000
H        0.70000000       0.00000000       0.00000000
H        0.70000000       1.21244000       0.00000000
3
Lattice="15.0 0.0 0.0 0.0 15.0 0.0 0.0 0.0 15.0" Properties=species:S:1:pos:R:3 energy=1.3258654365 pbc="T T T"
O        0.00000000       0.00000000       0.00000000
H        0.73684000       0.00000000       0.00000000
H        0.35000000       0.60622000       0.00000000
3
Lattice="15.0 0.0 0.0 0.0 15.0 0.0 0.0 0.0 15.0" Properties=species:S:1:pos:R:3 energy=1.2155284335 pbc="T T T"
O        0.00000000       0.00000000       0.00000000
H        0.73684000       0.00000000       0.00000000
H        0.36842000       0.63812000       0.00000000
3
Lattice="15.0 0.0 0.0 0.0 15.0 0.0 0.0 0.0 15.0" Properties=species:S:1:pos:R:3 energy=1.0999342495 pbc="T T T"
O        0.00000000       0.00000000       0.00000000
H        0.73684000       0.00000000       0.00000000
H        0.38684000       0.67003000       0.00000000
3
Lattice="15.0 0.0 0.0 0.0 15.0 0.0 0.0 0.0 15.0" Properties=species:S:1:pos:R:3 energy=0.9774494532 pbc="T T T"
O        0.00000000       0.00000000       0.00000000
H        0.73684000       0.00000000       0.00000000
H        0.40527000       0.70194000       0.00000000
3
Lattice="15.0 0.0 0.0 0.0 15.0 0.0 0.0 0.0 15.0" Properties=species:S:1:pos:R:3 energy=0.8529815615 pbc="T T T"
O        0.00000000       0.00000000       0.00000000
H        0.73684000       0.00000000       0.00000000
H        0.42369000       0.73384000       0.00000000
3
Lattice="15.0 0.0 0.0 0.0 15.0 0.0 0.0 0.0 15.0" Properties=species:S:1:pos:R:3 energy=0.7273985807 pbc="T T T"
O        0.00000000       0.00000000       0.00000000
H        0.73684000       0.00000000       0.00000000
H        0.44211000       0.76575000       0.00000000
3
Lattice="15.0 0.0 0.0 0.0 15.0 0.0 0.0 0.0 15.0" Properties=species:S:1:pos:R:3 energy=0.6023036450 pbc="T T T"
O        0.00000000       0.00000000       0.00000000
H        0.73684000       0.00000000       0.00000000
H        0.46053000       0.79765000       0.00000000
3
Lattice="15.0 0.0 0.0 0.0 15.0 0.0 0.0 0.0 15.0" Properties=species:S:1:pos:R:3 energy=0.4788772468 pbc="T T T"
O        0.00000000       0.00000000       0.00000000
H        0.73684000       0.00000000       0.00000000
H        0.47895000       0.82956000       0.00000000
3
Lattice="15.0 0.0 0.0 0.0 15.0 0.0 0.0 0.0 15.0" Properties=species:S:1:pos:R:3 energy=0.3581938916 pbc="T T T"
O        0.00000000       0.00000000       0.00000000
H        0.73684000       0.00000000       0.00000000
H        0.49737000       0.86147000       0.00000000
3
Lattice="15.0 0.0 0.0 0.0 15.0 0.0 0.0 0.0 15.0" Properties=species:S:1:pos:R:3 energy=0.2409567868 pbc="T T T"
O        0.00000000       0.00000000       0.00000000
H        0.73684000       0.00000000       0.00000000
H        0.51579000       0.89337000       0.00000000
3
Lattice="15.0 0.0 0.0 0.0 15.0 0.0 0.0 0.0 15.0" Properties=species:S:1:pos:R:3 energy=0.1276015502 pbc="T T T"
O        0.00000000       0.00000000       0.00000000
H        0.73684000       0.00000000       0.00000000
H        0.53421000       0.92528000       0.00000000
3
Lattice="15.0 0.0 0.0 0.0 15.0 0.0 0.0 0.0 15.0" Properties=species:S:1:pos:R:3 energy=0.0184986964 pbc="T T T"
O        0.00000000       0.00000000       0.00000000
H        0.73684000       0.00000000       0.00000000
H        0.55263000       0.95718000       0.00000000
3
Lattice="15.0 0.0 0.0 0.0 15.0 0.0 0.0 0.0 15.0" Properties=species:S:1:pos:R:3 energy=-0.0861667790 pbc="T T T"
O        0.00000000       0.00000000       0.00000000
H        0.73684000       0.00000000       0.00000000
H        0.57106000       0.98910000       0.00000000
3
Lattice="15.0 0.0 0.0 0.0 15.0 0.0 0.0 0.0 15.0" Properties=species:S:1:pos:R:3 energy=-0.1861200942 pbc="T T T"
O        0.00000000       0.00000000       0.00000000
H        0.73684000       0.00000000       0.00000000
H        0.58948000       1.02100000       0.00000000
3
Lattice="15.0 0.0 0.0 0.0 15.0 0.0 0.0 0.0 15.0" Properties=species:S:1:pos:R:3 energy=-0.2815026282 pbc="T T T"
O        0.00000000       0.00000000       0.00000000
H        0.73684000       0.00000000       0.00000000
H        0.60790000       1.05291000       0.00000000
3
Lattice="15.0 0.0 0.0 0.0 15.0 0.0 0.0 0.0 15.0" Properties=species:S:1:pos:R:3 energy=-0.3721384602 pbc="T T T"
O        0.00000000       0.00000000       0.00000000
H        0.73684000       0.00000000       0.00000000
H        0.62632000       1.08481000       0.00000000
3
Lattice="15.0 0.0 0.0 0.0 15.0 0.0 0.0 0.0 15.0" Properties=species:S:1:pos:R:3 energy=-0.4582112602 pbc="T T T"
O        0.00000000       0.00000000       0.00000000
H        0.73684000       0.00000000       0.00000000
H        0.64474000       1.11671000       0.00000000
3
Lattice="15.0 0.0 0.0 0.0 15.0 0.0 0.0 0.0 15.0" Properties=species:S:1:pos:R:3 energy=-0.5397079949 pbc="T T T"
O        0.00000000       0.00000000       0.00000000
H        0.73684000       0.00000000       0.00000000
H        0.66316000       1.14863000       0.00000000
3
Lattice="15.0 0.0 0.0 0.0 15.0 0.0 0.0 0.0 15.0" Properties=species:S:1:pos:R:3 energy=-0.6168305504 pbc="T T T"
O        0.00000000       0.00000000       0.00000000
H        0.73684000       0.00000000       0.00000000
H        0.68158000       1.18053000       0.00000000
3
Lattice="15.0 0.0 0.0 0.0 15.0 0.0 0.0 0.0 15.0" Properties=species:S:1:pos:R:3 energy=-0.6895388443 pbc="T T T"
O        0.00000000       0.00000000       0.00000000
H        0.73684000       0.00000000       0.00000000
H        0.70000000       1.21244000       0.00000000
3
Lattice="15.0 0.0 0.0 0.0 15.0 0.0 0.0 0.0 15.0" Properties=species:S:1:pos:R:3 energy=1.1999603176 pbc="T T T"
O        0.00000000       0.00000000       0.00000000
H        0.77368000       0.00000000       0.00000000
H        0.35000000       0.60622000       0.00000000
3
Lattice="15.0 0.0 0.0 0.0 15.0 0.0 0.0 0.0 15.0" Properties=species:S:1:pos:R:3 energy=1.1000683099 pbc="T T T"
O        0.00000000       0.00000000       0.00000000
H        0.77368000       0.00000000       0.00000000
H        0.36842000       0.63812000       0.00000000
3
Lattice="15.0 0.0 0.0 0.0 15.0 0.0 0.0 0.0 15.0" Properties=species:S:1:pos:R:3 energy=0.9944683265 pbc="T T T"
O        0.00000000       0.00000000       0.00000000
H        0.77368000       0.00000000       0.00000000
H        0.38684000       0.67003000       0.00000000
3
Lattice="15.0 0.0 0.0 0.0 15.0 0.0 0.0 0.0 15.0" Properties=species:S:1:pos:R:3 energy=0.8813062952 pbc="T T T"
O        0.00000000       0.00000000       0.00000000
H        0.77368000       0.00000000       0.00000000
H        0.40527000       0.70194000       0.00000000
3
Lattice="15.0 0.0 0.0 0.0 15.0 0.0 0.0 0.0 15.0" Properties=species:S:1:pos:R:3 energy=0.7653657035 pbc="T T T"
O        0.00000000       0.00000000       0.00000000
H        0.77368000       0.00000000       0.00000000
H        0.42369000       0.73384000       0.00000000
3
Lattice="15.0 0.0 0.0 0.0 15.0 0.0 0.0 0.0 15.0" Properties=species:S:1:pos:R:3 energy=0.6474672589 pbc="T T T"
O        0.00000000       0.00000000       0.00000000
H        0.77368000       0.00000000       0.00000000
H        0.44211000       0.76575000       0.00000000
3
Lattice="15.0 0.0 0.0 0.0 15.0 0.0 0.0 0.0 15.0" Properties=species:S:1:pos:R:3 energy=0.5292117772 pbc="T T T"
O        0.00000000       0.00000000       0.00000000
H        0.77368000       0.00000000       0.00000000
H        0.46053000       0.79765000       0.00000000
3
Lattice="15.0 0.0 0.0 0.0 15.0 0.0 0.0 0.0 15.0" Properties=species:S:1:pos:R:3 energy=0.4118285789 pbc="T T T"
O        0.00000000       0.00000000       0.00000000
H        0.77368000       0.00000000       0.00000000
H        0.47895000       0.82956000       0.00000000
3
Lattice="15.0 0.0 0.0 0.0 15.0 0.0 0.0 0.0 15.0" Properties=species:S:1:pos:R:3 energy=0.2964588264 pbc="T T T"
O        0.00000000       0.00000000       0.00000000
H        0.77368000       0.00000000       0.00000000
H        0.49737000       0.86147000       0.00000000
3
Lattice="15.0 0.0 0.0 0.0 15.0 0.0 0.0 0.0 15.0" Properties=species:S:1:pos:R:3 energy=0.1838844769 pbc="T T T"
O        0.00000000       0.00000000       0.00000000
H        0.77368000       0.00000000       0.00000000
H        0.51579000       0.89337000       0.00000000
3
Lattice="15.0 0.0 0.0 0.0 15.0 0.0 0.0 0.0 15.0" Properties=species:S:1:pos:R:3 energy=0.0746248424 pbc="T T T"
O        0.00000000       0.00000000       0.00000000
H        0.77368000       0.00000000       0.00000000
H        0.53421000       0.92528000       0.00000000
3
Lattice="15.0 0.0 0.0 0.0 15.0 0.0 0.0 0.0 15.0" Properties=species:S:1:pos:R:3 energy=-0.0308775560 pbc="T T T"
O        0.00000000       0.00000000       0.00000000
H        0.77368000       0.00000000       0.00000000
H        0.55263000       0.95718000       0.00000000
3
Lattice="15.0 0.0 0.0 0.0 15.0 0.0 0.0 0.0 15.0" Properties=species:S:1:pos:R:3 energy=-0.1323676531 pbc="T T T"
O        0.00000000       0.00000000       0.00000000
H        0.77368000       0.00000000       0.00000000
H        0.57106000       0.98910000       0.00000000
3
Lattice="15.0 0.0 0.0 0.0 15.0 0.0 0.0 0.0 15.0" Properties=species:S:1:pos:R:3 energy=-0.2295162444 pbc="T T T"
O        0.00000000       0.00000000       0.00000000
H        0.77368000       0.00000000       0.00000000
H        0.58948000       1.02100000       0.00000000
3
Lattice="15.0 0.0 0.0 0.0 15.0 0.0 0.0 0.0 15.0" Properties=species:S:1:pos:R:3 energy=-0.3224109448 pbc="T T T"
O        0.00000000       0.00000000       0.00000000
H        0.77368000       0.00000000       0.00000000
H        0.60790000       1.05291000       0.00000000
3
Lattice="15.0 0.0 0.0 0.0 15.0 0.0 0.0 0.0 15.0" Properties=species:S:1:pos:R:3 energy=-0.4108335497 pbc="T T T"
O        0.00000000       0.00000000       0.00000000
H        0.77368000       0.00000000       0.00000000
H        0.62632000       1.08481000       0.00000000
3
Lattice="15.0 0.0 0.0 0.0 15.0 0.0 0.0 0.0 15.0" Properties=species:S:1:pos:R:3 energy=-0.4949289226 pbc="T T T"
O        0.00000000       0.00000000       0.00000000
H        0.77368000       0.00000000       0.00000000
H        0.64474000       1.11671000       0.00000000
3
Lattice="15.0 0.0 0.0 0.0 15.0 0.0 0.0 0.0 15.0" Properties=species:S:1:pos:R:3 energy=-0.5746504790 pbc="T T T"
O        0.00000000       0.00000000       0.00000000
H        0.77368000       0.00000000       0.00000000
H        0.66316000       1.14863000       0.00000000
3
Lattice="15.0 0.0 0.0 0.0 15.0 0.0 0.0 0.0 15.0" Properties=species:S:1:pos:R:3 energy=-0.6501750541 pbc="T T T"
O        0.00000000       0.00000000       0.00000000
H        0.77368000       0.00000000       0.00000000
H        0.68158000       1.18053000       0.00000000
3
Lattice="15.0 0.0 0.0 0.0 15.0 0.0 0.0 0.0 15.0" Properties=species:S:1:pos:R:3 energy=-0.7214376887 pbc="T T T"
O        0.00000000       0.00000000       0.00000000
H        0.77368000       0.00000000       0.00000000
H        0.70000000       1.21244000       0.00000000
3
Lattice="15.0 0.0 0.0 0.0 15.0 0.0 0.0 0.0 15.0" Properties=species:S:1:pos:R:3 energy=1.0679754454 pbc="T T T"
O        0.00000000       0.00000000       0.00000000
H        0.81053000       0.00000000       0.00000000
H        0.35000000       0.60622000       0.00000000
3
Lattice="15.0 0.0 0.0 0.0 15.0 0.0 0.0 0.0 15.0" Properties=species:S:1:pos:R:3 energy=0.9775449862 pbc="T T T"
O        0.00000000       0.00000000       0.00000000
H        0.81053000       0.00000000       0.00000000
H        0.36842000       0.63812000       0.00000000
3
Lattice="15.0 0.0 0.0 0.0 15.0 0.0 0.0 0.0 15.0" Properties=species:S:1:pos:R:3 energy=0.8812718714 pbc="T T T"
O        0.00000000       0.00000000       0.00000000
H        0.81053000       0.00000000       0.00000000
H        0.38684000       0.67003000       0.00000000
3
Lattice="15.0 0.0 0.0 0.0 15.0 0.0 0.0 0.0 15.0" Properties=species:S:1:pos:R:3 energy=0.7770463667 pbc="T T T"
O        0.00000000       0.00000000       0.00000000
H        0.81053000       0.00000000       0.00000000
H        0.40527000       0.70194000       0.00000000
3
Lattice="15.0 0.0 0.0 0.0 15.0 0.0 0.0 0.0 15.0" Properties=species:S:1:pos:R:3 energy=0.6694814261 pbc="T T T"
O        0.00000000       0.00000000       0.00000000
H        0.81053000       0.00000000       0.00000000
H        0.42369000       0.73384000       0.00000000
3
Lattice="15.0 0.0 0.0 0.0 15.0 0.0 0.0 0.0 15.0" Properties=species:S:1:pos:R:3 energy=0.5592984680 pbc="T T T"
O        0.00000000       0.00000000       0.00000000
H        0.81053000       0.00000000       0.00000000
H        0.44211000       0.76575000       0.00000000
3
Lattice="15.0 0.0 0.0 0.0 15.0 0.0 0.0 0.0 15.0" Properties=species:S:1:pos:R:3 energy=0.4480450609 pbc="T T T"
O        0.00000000       0.00000000       0.00000000
H        0.81053000       0.00000000       0.00000000
H        0.46053000       0.79765000       0.00000000
3
Lattice="15.0 0.0 0.0 0.0 15.0 0.0 0.0 0.0 15.0" Properties=species:S:1:pos:R:3 energy=0.3369555079 pbc="T T T"
O        0.00000000       0.00000000       0.00000000
H        0.81053000       0.00000000       0.00000000
H        0.47895000       0.82956000       0.00000000
3
Lattice="15.0 0.0 0.0 0.0 15.0 0.0 0.0 0.0 15.0" Properties=species:S:1:pos:R:3 energy=0.2272024766 pbc="T T T"
O        0.00000000       0.00000000       0.00000000
H        0.81053000       0.00000000       0.00000000
H        0.49737000       0.86147000       0.00000000
3
Lattice="15.0 0.0 0.0 0.0 15.0 0.0 0.0 0.0 15.0" Properties=species:S:1:pos:R:3 energy=0.1196214818 pbc="T T T"
O        0.00000000       0.00000000       0.00000000
H        0.81053000       0.00000000       0.00000000
H        0.51579000       0.89337000       0.00000000
3
Lattice="15.0 0.0 0.0 0.0 15.0 0.0 0.0 0.0 15.0" Properties=species:S:1:pos:R:3 energy=0.0147992869 pbc="T T T"
O        0.00000000       0.00000000       0.00000000
H        0.81053000       0.00000000       0.00000000
H        0.53421000       0.92528000       0.00000000
3
Lattice="15.0 0.0 0.0 0.0 15.0 0.0 0.0 0.0 15.0" Properties=species:S:1:pos:R:3 energy=-0.0867603966 pbc="T T T"
O        0.00000000       0.00000000       0.00000000
H        0.81053000       0.00000000       0.00000000
H        0.55263000       0.95718000       0.00000000
3
Lattice="15.0 0.0 0.0 0.0 15.0 0.0 0.0 0.0 15.0" Properties=species:S:1:pos:R:3 energy=-0.1847385161 pbc="T T T"
O        0.00000000       0.00000000       0.00000000
H        0.81053000       0.00000000       0.00000000
H        0.57106000       0.98910000       0.00000000
3
Lattice="15.0 0.0 0.0 0.0 15.0 0.0 0.0 0.0 15.0" Properties=species:S:1:pos:R:3 energy=-0.2787558905 pbc="T T T"
O        0.00000000       0.00000000       0.00000000
H        0.81053000       0.00000000       0.00000000
H        0.58948000       1.02100000       0.00000000
3
Lattice="15.0 0.0 0.0 0.0 15.0 0.0 0.0 0.0 15.0" Properties=species:S:1:pos:R:3 energy=-0.3688485502 pbc="T T T"
O        0.00000000       0.00000000       0.00000000
H        0.81053000       0.00000000       0.00000000
H        0.60790000       1.05291000       0.00000000
3
Lattice="15.0 0.0 0.0 0.0 15.0 0.0 0.0 0.0 15.0" Properties=species:S:1:pos:R:3 energy=-0.4547578270 pbc="T T T"
O        0.00000000       0.00000000       0.00000000
H        0.81053000       0.00000000       0.00000000
H        0.62632000       1.08481000       0.00000000
3
Lattice="15.0 0.0 0.0 0.0 15.0 0.0 0.0 0.0 15.0" Properties=species:S:1:pos:R:3 energy=-0.5365904997 pbc="T T T"
O        0.00000000       0.00000000       0.00000000
H        0.81053000       0.00000000       0.00000000
H        0.64474000       1.11671000       0.00000000
3
Lattice="15.0 0.0 0.0 0.0 15.0 0.0 0.0 0.0 15.0" Properties=species:S:1:pos:R:3 energy=-0.6142665273 pbc="T T T"
O        0.00000000       0.00000000       0.00000000
H        0.81053000       0.00000000       0.00000000
H        0.66316000       1.14863000       0.00000000
3
Lattice="15.0 0.0 0.0 0.0 15.0 0.0 0.0 0.0 15.0" Properties=species:S:1:pos:R:3 energy=-0.6879380560 pbc="T T T"
O        0.00000000       0.00000000       0.00000000
H        0.81053000       0.00000000       0.00000000
H        0.68158000       1.18053000       0.00000000
3
Lattice="15.0 0.0 0.0 0.0 15.0 0.0 0.0 0.0 15.0" Properties=species:S:1:pos:R:3 energy=-0.7575146459 pbc="T T T"
O        0.00000000       0.00000000       0.00000000
H        0.81053000       0.00000000       0.00000000
H        0.70000000       1.21244000       0.00000000
3
Lattice="15.0 0.0 0.0 0.0 15.0 0.0 0.0 0.0 15.0" Properties=species:S:1:pos:R:3 energy=0.9350225634 pbc="T T T"
O        0.00000000       0.00000000       0.00000000
H        0.84737000       0.00000000       0.00000000
H        0.35000000       0.60622000       0.00000000
3
Lattice="15.0 0.0 0.0 0.0 15.0 0.0 0.0 0.0 15.0" Properties=species:S:1:pos:R:3 energy=0.8530139303 pbc="T T T"
O        0.00000000       0.00000000       0.00000000
H        0.84737000       0.00000000       0.00000000
H        0.36842000       0.63812000       0.00000000
3
Lattice="15.0 0.0 0.0 0.0 15.0 0.0 0.0 0.0 15.0" Properties=species:S:1:pos:R:3 energy=0.7652715549 pbc="T T T"
O        0.00000000       0.00000000       0.00000000
H        0.84737000       0.00000000       0.00000000
H        0.38684000       0.67003000       0.00000000
3
Lattice="15.0 0.0 0.0 0.0 15.0 0.0 0.0 0.0 15.0" Properties=species:S:1:pos:R:3 energy=0.6694208659 pbc="T T T"
O        0.00000000       0.00000000       0.00000000
H        0.84737000       0.00000000       0.00000000
H        0.40527000       0.70194000       0.00000000
3
Lattice="15.0 0.0 0.0 0.0 15.0 0.0 0.0 0.0 15.0" Properties=species:S:1:pos:R:3 energy=0.5698810910 pbc="T T T"
O        0.00000000       0.00000000       0.00000000
H        0.84737000       0.00000000       0.00000000
H        0.42369000       0.73384000       0.00000000
3
Lattice="15.0 0.0 0.0 0.0 15.0 0.0 0.0 0.0 15.0" Properties=species:S:1:pos:R:3 energy=0.4672408270 pbc="T T T"
O        0.00000000       0.00000000       0.00000000
H        0.84737000       0.00000000       0.00000000
H        0.44211000       0.76575000       0.00000000
3
Lattice="15.0 0.0 0.0 0.0 15.0 0.0 0.0 0.0 15.0" Properties=species:S:1:pos:R:3 energy=0.3629561224 pbc="T T T"
O        0.00000000       0.00000000       0.00000000
H        0.84737000       0.00000000       0.00000000
H        0.46053000       0.79765000       0.00000000
3
Lattice="15.0 0.0 0.0 0.0 15.0 0.0 0.0 0.0 15.0" Properties=species:S:1:pos:R:3 energy=0.2582288391 pbc="T T T"
O        0.00000000       0.00000000       0.00000000
H        0.84737000       0.00000000       0.00000000
H        0.47895000       0.82956000       0.00000000
3
Lattice="15.0 0.0 0.0 0.0 15.0 0.0 0.0 0.0 15.0" Properties=species:S:1:pos:R:3 energy=0.1542306133 pbc="T T T"
O        0.00000000       0.00000000       0.00000000
H        0.84737000       0.00000000       0.00000000
H        0.49737000       0.86147000       0.00000000
3
Lattice="15.0 0.0 0.0 0.0 15.0 0.0 0.0 0.0 15.0" Properties=species:S:1:pos:R:3 energy=0.0518252975 pbc="T T T"
O        0.00000000       0.00000000       0.00000000
H        0.84737000       0.00000000       0.00000000
H        0.51579000       0.89337000       0.00000000
3
Lattice="15.0 0.0 0.0 0.0 15.0 0.0 0.0 0.0 15.0" Properties=species:S:1:pos:R:3 energy=-0.0483502676 pbc="T T T"
O        0.00000000       0.00000000       0.00000000
H        0.84737000       0.00000000       0.00000000
H        0.53421000       0.92528000       0.00000000
3
Lattice="15.0 0.0 0.0 0.0 15.0 0.0 0.0 0.0 15.0" Properties=species:S:1:pos:R:3 energy=-0.1457431749 pbc="T T T"
O        0.00000000       0.00000000       0.00000000
H        0.84737000       0.00000000       0.00000000
H        0.55263000       0.95718000       0.00000000
3
Lattice="15.0 0.0 0.0 0.0 15.0 0.0 0.0 0.0 15.0" Properties=species:S:1:pos:R:3 energy=-0.2399776743 pbc="T T T"
O        0.00000000       0.00000000       0.00000000
H        0.84737000       0.00000000       0.00000000
H        0.57106000       0.98910000       0.00000000
3
Lattice="15.0 0.0 0.0 0.0 15.0 0.0 0.0 0.0 15.0" Properties=species:S:1:pos:R:3 energy=-0.3306299526 pbc="T T T"
O        0.00000000       0.00000000       0.00000000
H        0.84737000       0.00000000       0.00000000
H        0.58948000       1.02100000       0.00000000
3
Lattice="15.0 0.0 0.0 0.0 15.0 0.0 0.0 0.0 15.0" Properties=species:S:1:pos:R:3 energy=-0.4176876094 pbc="T T T"
O        0.00000000       0.00000000       0.00000000
H        0.84737000       0.00000000       0.00000000
H        0.60790000       1.05291000       0.00000000
3
Lattice="15.0 0.0 0.0 0.0 15.0 0.0 0.0 0.0 15.0" Properties=species:S:1:pos:R:3 energy=-0.5008541853 pbc="T T T"
O        0.00000000       0.00000000       0.00000000
H        0.84737000       0.00000000       0.00000000
H        0.62632000       1.08481000       0.00000000
3
Lattice="15.0 0.0 0.0 0.0 15.0 0.0 0.0 0.0 15.0" Properties=species:S:1:pos:R:3 energy=-0.5802000041 pbc="T T T"
O        0.00000000       0.00000000       0.00000000
H        0.84737000       0.00000000       0.00000000
H        0.64474000       1.11671000       0.00000000
3
Lattice="15.0 0.0 0.0 0.0 15.0 0.0 0.0 0.0 15.0" Properties=species:S:1:pos:R:3 energy=-0.6556125994 pbc="T T T"
O        0.00000000       0.00000000       0.00000000
H        0.84737000       0.00000000       0.00000000
H        0.66316000       1.14863000       0.00000000
3
Lattice="15.0 0.0 0.0 0.0 15.0 0.0 0.0 0.0 15.0" Properties=species:S:1:pos:R:3 energy=-0.7272206262 pbc="T T T"
O        0.00000000       0.00000000       0.00000000
H        0.84737000       0.00000000       0.00000000
H        0.68158000       1.18053000       0.00000000
3
Lattice="15.0 0.0 0.0 0.0 15.0 0.0 0.0 0.0 15.0" Properties=species:S:1:pos:R:3 energy=-0.7949084248 pbc="T T T"
O        0.00000000       0.00000000       0.00000000
H        0.84737000       0.00000000       0.00000000
H        0.70000000       1.21244000       0.00000000
3
Lattice="15.0 0.0 0.0 0.0 15.0 0.0 0.0 0.0 15.0" Properties=species:S:1:pos:R:3 energy=0.8020906078 pbc="T T T"
O        0.00000000       0.00000000       0.00000000
H        0.88421000       0.00000000       0.00000000
H        0.35000000       0.60622000       0.00000000
3
Lattice="15.0 0.0 0.0 0.0 15.0 0.0 0.0 0.0 15.0" Properties=species:S:1:pos:R:3 energy=0.7274834308 pbc="T T T"
O        0.00000000       0.00000000       0.00000000
H        0.88421000       0.00000000       0.00000000
H        0.36842000       0.63812000       0.00000000
3
Lattice="15.0 0.0 0.0 0.0 15.0 0.0 0.0 0.0 15.0" Properties=species:S:1:pos:R:3 energy=0.6474260325 pbc="T T T"
O        0.00000000       0.00000000       0.00000000
H        0.88421000       0.00000000       0.00000000
H        0.38684000       0.67003000       0.00000000
3
Lattice="15.0 0.0 0.0 0.0 15.0 0.0 0.0 0.0 15.0" Properties=species:S:1:pos:R:3 energy=0.5592868762 pbc="T T T"
O        0.00000000       0.00000000       0.00000000
H        0.88421000       0.00000000       0.00000000
H        0.40527000       0.70194000       0.00000000
3
Lattice="15.0 0.0 0.0 0.0 15.0 0.0 0.0 0.0 15.0" Properties=species:S:1:pos:R:3 energy=0.4672866660 pbc="T T T"
O        0.00000000       0.00000000       0.00000000
H        0.88421000       0.00000000       0.00000000
H        0.42369000       0.73384000       0.00000000
3
Lattice="15.0 0.0 0.0 0.0 15.0 0.0 0.0 0.0 15.0" Properties=species:S:1:pos:R:3 energy=0.3718649597 pbc="T T T"
O        0.00000000       0.00000000       0.00000000
H        0.88421000       0.00000000       0.00000000
H        0.44211000       0.76575000       0.00000000
3
Lattice="15.0 0.0 0.0 0.0 15.0 0.0 0.0 0.0 15.0" Properties=species:S:1:pos:R:3 energy=0.2743621434 pbc="T T T"
O        0.00000000       0.00000000       0.00000000
H        0.88421000       0.00000000       0.00000000
H        0.46053000       0.79765000       0.00000000
3
Lattice="15.0 0.0 0.0 0.0 15.0 0.0 0.0 0.0 15.0" Properties=species:S:1:pos:R:3 energy=0.1759193650 pbc="T T T"
O        0.00000000       0.00000000       0.00000000
H        0.88421000       0.00000000       0.00000000
H        0.47895000       0.82956000       0.00000000
3
Lattice="15.0 0.0 0.0 0.0 15.0 0.0 0.0 0.0 15.0" Properties=species:S:1:pos:R:3 energy=0.0776791528 pbc="T T T"