3
Lattice="15.0 0.0 0.0 0.0 15.0 0.0 0.0 0.0 15.0" Properties=species:S:1:pos:R:3 energy=0.095/ -0.159/ -0.216 pbc="T T T"
O        0.00649142      -0.00419182       0.00000000
H        0.82390637       0.03798074       0.00000000
H       -0.20561521       0.95749316       0.00000000
3
Lattice="15.0 0.0 0.0 0.0 15.0 0.0 0.0 0.0 15.0" Properties=species:S:1:pos:R:3 energy=0.098/ 0.237/ -0.035 pbc="T T T"
O       -0.00492337      -0.00838898       0.00000000
H        1.03307520       0.02945725       0.00000000
H       -0.23362319       1.03262962       0.00000000
3
Lattice="15.0 0.0 0.0 0.0 15.0 0.0 0.0 0.0 15.0" Properties=species:S:1:pos:R:3 energy=-0.349/ -0.152/ 0.234 pbc="T T T"
O        0.00351805       0.01816409       0.00000000
H        0.98592872      -0.12163265       0.00000000
H       -0.32045241       0.76230326       0.00000000
3
Lattice="15.0 0.0 0.0 0.0 15.0 0.0 0.0 0.0 15.0" Properties=species:S:1:pos:R:3 energy=-0.394/ 0.229/ -0.06 pbc="T T T"
O        0.00677673       0.00523918       0.00000000
H        1.01930083      -0.14698063       0.00000000
H       -0.40554254       0.99277944       0.00000000
3
Lattice="15.0 0.0 0.0 0.0 15.0 0.0 0.0 0.0 15.0" Properties=species:S:1:pos:R:3 energy=0.27/ -0.067/ 0.283 pbc="T T T"
O       -0.01289702      -0.00010219       0.00000000
H        1.03712156       0.09847080       0.00000000
H       -0.11112037       0.83209818       0.00000000
3
Lattice="15.0 0.0 0.0 0.0 15.0 0.0 0.0 0.0 15.0" Properties=species:S:1:pos:R:3 energy=0.018/ -0.039/ 0.261 pbc="T T T"
O       -0.00713661       0.00599931       0.00000000
H        1.03833033       0.00731521       0.00000000
H       -0.20375342       0.82641902       0.00000000
3
Lattice="15.0 0.0 0.0 0.0 15.0 0.0 0.0 0.0 15.0" Properties=species:S:1:pos:R:3 energy=0.342/ 0.24/ -0.28 pbc="T T T"
O       -0.00344885      -0.02072415       0.00000000
H        0.94734279       0.11672643       0.00000000
H       -0.17129001       1.14112784       0.00000000
3
Lattice="15.0 0.0 0.0 0.0 15.0 0.0 0.0 0.0 15.0" Properties=species:S:1:pos:R:3 energy=0.398/ 0.019/ -0.186 pbc="T T T"
O       -0.00384617      -0.01579848       0.00000000
H        0.90053829       0.14244712       0.00000000
H       -0.11817916       1.03723289       0.00000000
3
Lattice="15.0 0.0 0.0 0.0 15.0 0.0 0.0 0.0 15.0" Properties=species:S:1:pos:R:3 energy=-0.392/ 0.127/ -0.038 pbc="T T T"
O        0.00770916       0.00772820       0.00000000
H        0.99025564      -0.14376060       0.00000000
H       -0.39129580       0.95005670       0.00000000
3
Lattice="15.0 0.0 0.0 0.0 15.0 0.0 0.0 0.0 15.0" Properties=species:S:1:pos:R:3 energy=0.373/ 0.226/ -0.229 pbc="T T T"
O       -0.00532813      -0.02022985       0.00000000
H        0.96016820       0.12836988       0.00000000
H       -0.15428962       1.12163946       0.00000000
3
Lattice="15.0 0.0 0.0 0.0 15.0 0.0 0.0 0.0 15.0" Properties=species:S:1:pos:R:3 energy=-0.232/ 0.251/ 0.097 pbc="T T T"
O       -0.00157960       0.00360318       0.00000000
H        1.08434932      -0.08935393       0.00000000
H       -0.33796852       0.96111725       0.00000000
3
Lattice="15.0 0.0 0.0 0.0 15.0 0.0 0.0 0.0 15.0" Properties=species:S:1:pos:R:3 energy=-0.165/ -0.088/ 0.186 pbc="T T T"
O       -0.00021897       0.01056384       0.00000000
H        0.99290231      -0.05704460       0.00000000
H       -0.26811510       0.81833653       0.00000000
3
Lattice="15.0 0.0 0.0 0.0 15.0 0.0 0.0 0.0 15.0" Properties=species:S:1:pos:R:3 energy=0.145/ 0.192/ -0.218 pbc="T T T"
O       -0.00009379      -0.01280601       0.00000000
H        0.95125947       0.04738738       0.00000000
H       -0.22845584       1.08480068       0.00000000
3
Lattice="15.0 0.0 0.0 0.0 15.0 0.0 0.0 0.0 15.0" Properties=species:S:1:pos:R:3 energy=-0.057/ 0.05/ -0.074 pbc="T T T"
O        0.00256021      -0.00100454       0.00000000
H        0.95029441      -0.02175735       0.00000000
H       -0.26961365       0.96664765       0.00000000
3
Lattice="15.0 0.0 0.0 0.0 15.0 0.0 0.0 0.0 15.0" Properties=species:S:1:pos:R:3 energy=0.097/ -0.05/ -0.034 pbc="T T T"
O       -0.00037210      -0.00247057       0.00000000
H        0.92859965       0.03584628       0.00000000
H       -0.20137960       0.93231062       0.00000000
3
Lattice="15.0 0.0 0.0 0.0 15.0 0.0 0.0 0.0 15.0" Properties=species:S:1:pos:R:3 energy=-0.341/ -0.094/ 0.052 pbc="T T T"
O        0.00753613       0.01275235       0.00000000
H        0.94217807      -0.12012579       0.00000000
H       -0.34047157       0.84668468       0.00000000
3
Lattice="15.0 0.0 0.0 0.0 15.0 0.0 0.0 0.0 15.0" Properties=species:S:1:pos:R:3 energy=0.047/ 0.102/ -0.047 pbc="T T T"
O       -0.00130957      -0.00444232       0.00000000
H        0.97919732       0.01432242       0.00000000
H       -0.23709933       0.98512789       0.00000000
3
Lattice="15.0 0.0 0.0 0.0 15.0 0.0 0.0 0.0 15.0" Properties=species:S:1:pos:R:3 energy=0.28/ 0.024/ 0.027 pbc="T T T"
O       -0.00732909      -0.00784716       0.00000000
H        0.97833051       0.09990860       0.00000000
H       -0.14069618       0.95357855       0.00000000
3
Lattice="15.0 0.0 0.0 0.0 15.0 0.0 0.0 0.0 15.0" Properties=species:S:1:pos:R:3 energy=-0.089/ 0.209/ 0.21 pbc="T T T"
O       -0.00725009       0.00286586       0.00000000
H        1.10995634      -0.03703212       0.00000000
H       -0.27357955       0.92049708       0.00000000
3
Lattice="15.0 0.0 0.0 0.0 15.0 0.0 0.0 0.0 15.0" Properties=species:S:1:pos:R:3 energy=-0.338/ -0.016/ 0.029 pbc="T T T"
O        0.00690020       0.01055216       0.00000000
H        0.96202574      -0.12076803       0.00000000
H       -0.35022656       0.88224560       0.00000000
3
Lattice="15.0 0.0 0.0 0.0 15.0 0.0 0.0 0.0 15.0" Properties=species:S:1:pos:R:3 energy=0.096/ -0.042/ 0.092 pbc="T T T"
O       -0.00404598       0.00011911       0.00000000
H        0.97688781       0.03546623       0.00000000
H       -0.19136066       0.89159068       0.00000000
3
Lattice="15.0 0.0 0.0 0.0 15.0 0.0 0.0 0.0 15.0" Properties=species:S:1:pos:R:3 energy=-0.228/ -0.195/ -0.011 pbc="T T T"
O        0.00842127       0.01023036       0.00000000
H        0.88302733      -0.07715550       0.00000000
H       -0.29536740       0.84373969       0.00000000
3
Lattice="15.0 0.0 0.0 0.0 15.0 0.0 0.0 0.0 15.0" Properties=species:S:1:pos:R:3 energy=0.106/ -0.057/ -0.279 pbc="T T T"
O        0.00642301      -0.00795205       0.00000000
H        0.83841392       0.03940678       0.00000000
H       -0.21903699       1.01574492       0.00000000
3
Lattice="15.0 0.0 0.0 0.0 15.0 0.0 0.0 0.0 15.0" Properties=species:S:1:pos:R:3 energy=0.006/ -0.089/ -0.12 pbc="T T T"
O        0.00466711      -0.00098884       0.00000000
H        0.88330516       0.00424642       0.00000000
H       -0.23606184       0.94039430       0.00000000
3
Lattice="15.0 0.0 0.0 0.0 15.0 0.0 0.0 0.0 15.0" Properties=species:S:1:pos:R:3 energy=-0.192/ 0.265/ 0.197 pbc="T T T"
O       -0.00550209       0.00436406       0.00000000
H        1.12532110      -0.07522627       0.00000000
H       -0.31668723       0.93491397       0.00000000
3
Lattice="15.0 0.0 0.0 0.0 15.0 0.0 0.0 0.0 15.0" Properties=species:S:1:pos:R:3 energy=-0.284/ 0.224/ -0.218 pbc="T T T"
O        0.00888681      -0.00126239       0.00000000
H        0.96120655      -0.10738741       0.00000000
H       -0.38093574       1.05637055       0.00000000
3
Lattice="15.0 0.0 0.0 0.0 15.0 0.0 0.0 0.0 15.0" Properties=species:S:1:pos:R:3 energy=-0.019/ -0.123/ 0.038 pbc="T T T"
O        0.00128859       0.00386401       0.00000000
H        0.92755210      -0.00376667       0.00000000
H       -0.22668941       0.87138933       0.00000000
3
Lattice="15.0 0.0 0.0 0.0 15.0 0.0 0.0 0.0 15.0" Properties=species:S:1:pos:R:3 energy=0.229/ 0.051/ 0.205 pbc="T T T"
O       -0.01163927      -0.00304569       0.00000000
H        1.05181751       0.08083352       0.00000000
H       -0.14577805       0.89645112       0.00000000
3
Lattice="15.0 0.0 0.0 0.0 15.0 0.0 0.0 0.0 15.0" Properties=species:S:1:pos:R:3 energy=0.152/ 0.027/ -0.148 pbc="T T T"
O        0.00040376      -0.00811523       0.00000000
H        0.91593505       0.05390519       0.00000000
H       -0.20102789       1.00383653       0.00000000
3
Lattice="15.0 0.0 0.0 0.0 15.0 0.0 0.0 0.0 15.0" Properties=species:S:1:pos:R:3 energy=-0.124/ 0.003/ -0.112 pbc="T T T"
O        0.00583570       0.00099587       0.00000000
H        0.91941560      -0.04444963       0.00000000
H       -0.29071990       0.95759202       0.00000000
3
Lattice="15.0 0.0 0.0 0.0 15.0 0.0 0.0 0.0 15.0" Properties=species:S:1:pos:R:3 energy=0.12/ 0.198/ 0.224 pbc="T T T"
O       -0.01211189      -0.00253374       0.00000000
H        1.11211551       0.03822214       0.00000000
H       -0.19857630       0.93093793       0.00000000
3
Lattice="15.0 0.0 0.0 0.0 15.0 0.0 0.0 0.0 15.0" Properties=species:S:1:pos:R:3 energy=-0.059/ -0.063/ 0.072 pbc="T T T"
O        0.00026138       0.00452419       0.00000000
H        0.96151594      -0.01956126       0.00000000
H       -0.24435106       0.87670654       0.00000000
3
Lattice="15.0 0.0 0.0 0.0 15.0 0.0 0.0 0.0 15.0" Properties=species:S:1:pos:R:3 energy=0.108/ 0.293/ 0.244 pbc="T T T"
O       -0.01390773      -0.00368971       0.00000000
H        1.15365482       0.03174026       0.00000000
H       -0.21161448       0.95576615       0.00000000
3
Lattice="15.0 0.0 0.0 0.0 15.0 0.0 0.0 0.0 15.0" Properties=species:S:1:pos:R:3 energy=0.013/ 0.047/ -0.264 pbc="T T T"
O        0.00640737      -0.00711292       0.00000000
H        0.88146549       0.00352487       0.00000000
H       -0.26184131       1.03830962       0.00000000
3
Lattice="15.0 0.0 0.0 0.0 15.0 0.0 0.0 0.0 15.0" Properties=species:S:1:pos:R:3 energy=-0.353/ 0.023/ -0.17 pbc="T T T"
O        0.01220885       0.00584702       0.00000000
H        0.90498075      -0.12706922       0.00000000
H       -0.37743378       0.96322063       0.00000000
3
Lattice="15.0 0.0 0.0 0.0 15.0 0.0 0.0 0.0 15.0" Properties=species:S:1:pos:R:3 energy=-0.134/ -0.164/ 0.205 pbc="T T T"
O       -0.00022082       0.01163307       0.00000000
H        0.97212757      -0.04425879       0.00000000
H       -0.24731059       0.78858102       0.00000000
3
Lattice="15.0 0.0 0.0 0.0 15.0 0.0 0.0 0.0 15.0" Properties=species:S:1:pos:R:3 energy=0.081/ -0.033/ -0.126 pbc="T T T"
O        0.00226590      -0.00440942       0.00000000
H        0.90210709       0.03001701       0.00000000
H       -0.21675404       0.96891072       0.00000000
3
Lattice="15.0 0.0 0.0 0.0 15.0 0.0 0.0 0.0 15.0" Properties=species:S:1:pos:R:3 energy=0.016/ -0.09/ -0.289 pbc="T T T"
O        0.00922322      -0.00492991       0.00000000
H        0.82238452       0.00782157       0.00000000
H       -0.24744971       0.99936657       0.00000000
3
Lattice="15.0 0.0 0.0 0.0 15.0 0.0 0.0 0.0 15.0" Properties=species:S:1:pos:R:3 energy=0.258/ -0.03/ -0.039 pbc="T T T"
O       -0.00411721      -0.00757967       0.00000000
H        0.93487832       0.09322415       0.00000000
H       -0.14821909       0.95601759       0.00000000
3
Lattice="15.0 0.0 0.0 0.0 15.0 0.0 0.0 0.0 15.0" Properties=species:S:1:pos:R:3 energy=0.209/ 0.085/ -0.088 pbc="T T T"
O       -0.00349034      -0.00961315       0.00000000
H        0.95920733       0.07301403       0.00000000
H       -0.18249748       1.00850085       0.00000000
3
Lattice="15.0 0.0 0.0 0.0 15.0 0.0 0.0 0.0 15.0" Properties=species:S:1:pos:R:3 energy=-0.376/ -0.169/ 0.198 pbc="T T T"
O        0.00537023       0.01845490       0.00000000
H        0.96690787      -0.13060514       0.00000000
H       -0.33082728       0.76666036       0.00000000
3
Lattice="15.0 0.0 0.0 0.0 15.0 0.0 0.0 0.0 15.0" Properties=species:S:1:pos:R:3 energy=-0.123/ -0.025/ 0.106 pbc="T T T"
O        0.00011085       0.00633059       0.00000000
H        0.98723038      -0.04336591       0.00000000
H       -0.26767712       0.87184260       0.00000000
3
Lattice="15.0 0.0 0.0 0.0 15.0 0.0 0.0 0.0 15.0" Properties=species:S:1:pos:R:3 energy=-0.111/ 0.297/ -0.245 pbc="T T T"
O        0.00467463      -0.00825726       0.00000000
H        0.97893908      -0.04720546       0.00000000
H       -0.33181619       1.10720217       0.00000000
3
Lattice="15.0 0.0 0.0 0.0 15.0 0.0 0.0 0.0 15.0" Properties=species:S:1:pos:R:3 energy=-0.288/ 0.032/ 0.189 pbc="T T T"
O        0.00052241       0.01170109       0.00000000
H        1.03727852      -0.10422392       0.00000000
H       -0.32425870       0.84746731       0.00000000
3
Lattice="15.0 0.0 0.0 0.0 15.0 0.0 0.0 0.0 15.0" Properties=species:S:1:pos:R:3 energy=-0.113/ 0.088/ 0.17 pbc="T T T"
O       -0.00368076       0.00514288       0.00000000
H        1.05126730      -0.04262187       0.00000000
H       -0.27153841       0.88994859       0.00000000
3
Lattice="15.0 0.0 0.0 0.0 15.0 0.0 0.0 0.0 15.0" Properties=species:S:1:pos:R:3 energy=-0.281/ 0.134/ 0.084 pbc="T T T"
O        0.00171126       0.00711449       0.00000000
H        1.03700015      -0.10420690       0.00000000
H       -0.34284825       0.92024304       0.00000000
3
Lattice="15.0 0.0 0.0 0.0 15.0 0.0 0.0 0.0 15.0" Properties=species:S:1:pos:R:3 energy=0.369/ -0.079/ -0.154 pbc="T T T"
O       -0.00253753      -0.01224445       0.00000000
H        0.87592488       0.13423351       0.00000000
H       -0.11433524       0.98904128       0.00000000
3
Lattice="15.0 0.0 0.0 0.0 15.0 0.0 0.0 0.0 15.0" Properties=species:S:1:pos:R:3 energy=0.046/ -0.17/ 0.269 pbc="T T T"
O       -0.00590132       0.00805431       0.00000000
H        0.99329207       0.02058953       0.00000000
H       -0.17831973       0.78052994       0.00000000
3
Lattice="15.0 0.0 0.0 0.0 15.0 0.0 0.0 0.0 15.0" Properties=species:S:1:pos:R:3 energy=0.167/ 0.236/ 0.209 pbc="T T T"
O       -0.01332533      -0.00497772       0.00000000
H        1.12059375       0.05429385       0.00000000
H       -0.18779605       0.95365393       0.00000000
3
Lattice="15.0 0.0 0.0 0.0 15.0 0.0 0.0 0.0 15.0" Properties=species:S:1:pos:R:3 energy=0.296/ 0.206/ -0.216 pbc="T T T"
O       -0.00367129      -0.01732186       0.00000000
H        0.95733712       0.10098632       0.00000000
H       -0.17775461       1.10287126       0.00000000
3
Lattice="15.0 0.0 0.0 0.0 15.0 0.0 0.0 0.0 15.0" Properties=species:S:1:pos:R:3 energy=0.237/ 0.275/ 0.055 pbc="T T T"
O       -0.01113691      -0.01113286       0.00000000
H        1.07984370       0.07836198       0.00000000
H       -0.18177698       1.02727218       0.00000000
3
Lattice="15.0 0.0 0.0 0.0 15.0 0.0 0.0 0.0 15.0" Properties=species:S:1:pos:R:3 energy=0.105/ -0.003/ -0.147 pbc="T T T"
O        0.00187806      -0.00612123       0.00000000
H        0.90533268       0.03768586       0.00000000
H       -0.21382416       0.98840962       0.00000000
3
Lattice="15.0 0.0 0.0 0.0 15.0 0.0 0.0 0.0 15.0" Properties=species:S:1:pos:R:3 energy=-0.193/ 0.258/ -0.062 pbc="T T T"
O        0.00192022      -0.00112416       0.00000000
H        1.02998535      -0.07537509       0.00000000
H       -0.33914888       1.02216452       0.00000000
3
Lattice="15.0 0.0 0.0 0.0 15.0 0.0 0.0 0.0 15.0" Properties=species:S:1:pos:R:3 energy=-0.082/ 0.115/ -0.276 pbc="T T T"
O        0.00777104      -0.00606460       0.00000000
H        0.90144602      -0.03209950       0.00000000
H       -0.30346509       1.05729661       0.00000000
3
Lattice="15.0 0.0 0.0 0.0 15.0 0.0 0.0 0.0 15.0" Properties=species:S:1:pos:R:3 energy=-0.363/ -0.094/ -0.246 pbc="T T T"
O        0.01643592       0.00684233       0.00000000
H        0.83505694      -0.12800229       0.00000000
H       -0.37459664       0.94835719       0.00000000
3
Lattice="15.0 0.0 0.0 0.0 15.0 0.0 0.0 0.0 15.0" Properties=species:S:1:pos:R:3 energy=-0.012/ 0.01/ 0.266 pbc="T T T"
O       -0.00739699       0.00599505       0.00000000
H        1.05791982      -0.00467414       0.00000000
H       -0.21921079       0.83847610       0.00000000
3
Lattice="15.0 0.0 0.0 0.0 15.0 0.0 0.0 0.0 15.0" Properties=species:S:1:pos:R:3 energy=-0.295/ -0.098/ -0.084 pbc="T T T"
O        0.01042310       0.00853000       0.00000000
H        0.89197950      -0.10341990       0.00000000
H       -0.33609082       0.89699023       0.00000000
3
Lattice="15.0 0.0 0.0 0.0 15.0 0.0 0.0 0.0 15.0" Properties=species:S:1:pos:R:3 energy=0.1/ 0.263/ -0.176 pbc="T T T"
O       -0.00141475      -0.01206975       0.00000000
H        0.99208812       0.02964245       0.00000000
H       -0.24832048       1.09086087       0.00000000
3
Lattice="15.0 0.0 0.0 0.0 15.0 0.0 0.0 0.0 15.0" Properties=species:S:1:pos:R:3 energy=0.092/ 0.027/ 0.142 pbc="T T T"
O       -0.00645889      -0.00005720       0.00000000
H        1.01979565       0.03243961       0.00000000
H       -0.19597384       0.89741569       0.00000000
3
Lattice="15.0 0.0 0.0 0.0 15.0 0.0 0.0 0.0 15.0" Properties=species:S:1:pos:R:3 energy=-0.025/ 0.18/ 0.234 pbc="T T T"
O       -0.00888434       0.00216800       0.00000000
H        1.10813598      -0.01327909       0.00000000
H       -0.24582178       0.90781947       0.00000000
3
Lattice="15.0 0.0 0.0 0.0 15.0 0.0 0.0 0.0 15.0" Properties=species:S:1:pos:R:3 energy=0.154/ 0.246/ -0.273 pbc="T T T"
O        0.00040958      -0.01535189       0.00000000
H        0.95122093       0.04923578       0.00000000
H       -0.23640605       1.12335714       0.00000000
3
Lattice="15.0 0.0 0.0 0.0 15.0 0.0 0.0 0.0 15.0" Properties=species:S:1:pos:R:3 energy=-0.301/ 0.293/ 0.033 pbc="T T T"
O        0.00108662       0.00331366       0.00000000
H        1.07647733      -0.11518737       0.00000000
H       -0.37241204       0.99154564       0.00000000
3
Lattice="15.0 0.0 0.0 0.0 15.0 0.0 0.0 0.0 15.0" Properties=species:S:1:pos:R:3 energy=-0.041/ -0.123/ 0.246 pbc="T T T"
O       -0.00409967       0.00904597       0.00000000
H        1.00220420      -0.01165924       0.00000000
H       -0.21582630       0.79704068       0.00000000
3
Lattice="15.0 0.0 0.0 0.0 15.0 0.0 0.0 0.0 15.0" Properties=species:S:1:pos:R:3 energy=-0.143/ -0.131/ -0.166 pbc="T T T"
O        0.00992388       0.00308686       0.00000000
H        0.85066960      -0.04803808       0.00000000
H       -0.28685630       0.92799455       0.00000000
3
Lattice="15.0 0.0 0.0 0.0 15.0 0.0 0.0 0.0 15.0" Properties=species:S:1:pos:R:3 energy=-0.059/ 0.079/ -0.109 pbc="T T T"
O        0.00311838      -0.00230831       0.00000000
H        0.94845649      -0.02310096       0.00000000
H       -0.27663439       0.98868304       0.00000000
3
Lattice="15.0 0.0 0.0 0.0 15.0 0.0 0.0 0.0 15.0" Properties=species:S:1:pos:R:3 energy=-0.396/ 0.191/ -0.147 pbc="T T T"
O        0.00986356       0.00416693       0.00000000
H        0.97448593      -0.14684425       0.00000000
H       -0.40971786       1.00966030       0.00000000
3
Lattice="15.0 0.0 0.0 0.0 15.0 0.0 0.0 0.0 15.0" Properties=species:S:1:pos:R:3 energy=-0.043/ 0.048/ -0.04 pbc="T T T"
O        0.00132777      -0.00061429       0.00000000
H        0.96173164      -0.01667972       0.00000000
H       -0.26149105       0.95537651       0.00000000
3
Lattice="15.0 0.0 0.0 0.0 15.0 0.0 0.0 0.0 15.0" Properties=species:S:1:pos:R:3 energy=0.234/ 0.11/ 0.201 pbc="T T T"
O       -0.01255565      -0.00447146       0.00000000
H        1.07175475       0.08113776       0.00000000
H       -0.15117171       0.91877496       0.00000000
3
Lattice="15.0 0.0 0.0 0.0 15.0 0.0 0.0 0.0 15.0" Properties=species:S:1:pos:R:3 energy=0.185/ 0.232/ 0.064 pbc="T T T"
O       -0.00955032      -0.00857512       0.00000000
H        1.06713999       0.06061419       0.00000000
H       -0.19425409       1.00442675       0.00000000
3
Lattice="15.0 0.0 0.0 0.0 15.0 0.0 0.0 0.0 15.0" Properties=species:S:1:pos:R:3 energy=0.372/ 0.079/ -0.13 pbc="T T T"
O       -0.00579120      -0.01502135       0.00000000
H        0.94252627       0.13136415       0.00000000
H       -0.12929854       1.03598234       0.00000000
3
Lattice="15.0 0.0 0.0 0.0 15.0 0.0 0.0 0.0 15.0" Properties=species:S:1:pos:R:3 energy=0.123/ 0.135/ 0.293 pbc="T T T"
O       -0.01310983       0.00016860       0.00000000
H        1.11360137       0.04085192       0.00000000
H       -0.18422410       0.88541999       0.00000000
3
Lattice="15.0 0.0 0.0 0.0 15.0 0.0 0.0 0.0 15.0" Properties=species:S:1:pos:R:3 energy=-0.027/ 0.273/ -0.098 pbc="T T T"
O       -0.00094879      -0.00696088       0.00000000
H        1.02294996      -0.01616289       0.00000000
H       -0.28657861       1.05558497       0.00000000
3
Lattice="15.0 0.0 0.0 0.0 15.0 0.0 0.0 0.0 15.0" Properties=species:S:1:pos:R:3 energy=-0.322/ 0.164/ 0.137 pbc="T T T"
O        0.00064879       0.00879912       0.00000000
H        1.06648468      -0.11931664       0.00000000
H       -0.35547096       0.90861670       0.00000000
3
Lattice="15.0 0.0 0.0 0.0 15.0 0.0 0.0 0.0 15.0" Properties=species:S:1:pos:R:3 energy=0.212/ 0.151/ 0.252 pbc="T T T"
O       -0.01416975      -0.00359557       0.00000000
H        1.10510139       0.07237567       0.00000000
H       -0.15890154       0.91363632       0.00000000
3
Lattice="15.0 0.0 0.0 0.0 15.0 0.0 0.0 0.0 15.0" Properties=species:S:1:pos:R:3 energy=-0.225/ 0.3/ 0.265 pbc="T T T"
O       -0.00723807       0.00608529       0.00000000
H        1.16236527      -0.08802139       0.00000000
H       -0.32618059       0.92039206       0.00000000
3
Lattice="15.0 0.0 0.0 0.0 15.0 0.0 0.0 0.0 15.0" Properties=species:S:1:pos:R:3 energy=-0.135/ 0.278/ 0.258 pbc="T T T"
O       -0.00868575       0.00381274       0.00000000
H        1.15233145      -0.05522791       0.00000000
H       -0.29317013       0.92366533       0.00000000
3
Lattice="15.0 0.0 0.0 0.0 15.0 0.0 0.0 0.0 15.0" Properties=species:S:1:pos:R:3 energy=0.25/ 0.264/ 0.027 pbc="T T T"
O       -0.01044318      -0.01190125       0.00000000
H        1.06571884       0.08320183       0.00000000
H       -0.17866211       1.03462715       0.00000000
3
Lattice="15.0 0.0 0.0 0.0 15.0 0.0 0.0 0.0 15.0" Properties=species:S:1:pos:R:3 energy=0.045/ 0.205/ 0.281 pbc="T T T"
O       -0.01216706       0.00067179       0.00000000
H        1.13465392       0.01129986       0.00000000
H       -0.22023992       0.90698642       0.00000000
3
Lattice="15.0 0.0 0.0 0.0 15.0 0.0 0.0 0.0 15.0" Properties=species:S:1:pos:R:3 energy=0.252/ 0.091/ -0.061 pbc="T T T"
O       -0.00529694      -0.01035585       0.00000000
H        0.97125198       0.08826585       0.00000000
H       -0.16586963       1.00503608       0.00000000
3
Lattice="15.0 0.0 0.0 0.0 15.0 0.0 0.0 0.0 15.0" Properties=species:S:1:pos:R:3 energy=0.396/ -0.121/ -0.18 pbc="T T T"
O       -0.00176323      -0.01274449       0.00000000
H        0.85160801       0.14514928       0.00000000
H       -0.10230677       0.98606129       0.00000000
3
Lattice="15.0 0.0 0.0 0.0 15.0 0.0 0.0 0.0 15.0" Properties=species:S:1:pos:R:3 energy=-0.341/ -0.168/ 0.167 pbc="T T T"
O        0.00547041       0.01677274       0.00000000
H        0.95611049      -0.11815484       0.00000000
H       -0.32161943       0.78090706       0.00000000
3
Lattice="15.0 0.0 0.0 0.0 15.0 0.0 0.0 0.0 15.0" Properties=species:S:1:pos:R:3 energy=0.185/ 0.074/ -0.035 pbc="T T T"
O       -0.00426794      -0.00751603       0.00000000
H        0.97400859       0.06449572       0.00000000
H       -0.18495783       0.98373643       0.00000000
3
Lattice="15.0 0.0 0.0 0.0 15.0 0.0 0.0 0.0 15.0" Properties=species:S:1:pos:R:3 energy=0.399/ 0.275/ -0.002 pbc="T T T"
O       -0.01309540      -0.01697326       0.00000000
H        1.06003066       0.13628667       0.00000000
H       -0.13087974       1.06203858       0.00000000
3
Lattice="15.0 0.0 0.0 0.0 15.0 0.0 0.0 0.0 15.0" Properties=species:S:1:pos:R:3 energy=0.331/ -0.169/ 0.265 pbc="T T T"
O       -0.01210714      -0.00016645       0.00000000
H        0.99353394       0.12278559       0.00000000
H       -0.08006811       0.80880289       0.00000000
3
Lattice="15.0 0.0 0.0 0.0 15.0 0.0 0.0 0.0 15.0" Properties=species:S:1:pos:R:3 energy=0.23/ 0.267/ 0.242 pbc="T T T"
O       -0.01611300      -0.00667461       0.00000000
H        1.14396286       0.07584942       0.00000000
H       -0.16692209       0.95902930       0.00000000
3
Lattice="15.0 0.0 0.0 0.0 15.0 0.0 0.0 0.0 15.0" Properties=species:S:1:pos:R:3 energy=0.254/ -0.007/ 0.208 pbc="T T T"
O       -0.01134032      -0.00251850       0.00000000
H        1.03172379       0.09109126       0.00000000
H       -0.13042872       0.87782634       0.00000000
3
Lattice="15.0 0.0 0.0 0.0 15.0 0.0 0.0 0.0 15.0" Properties=species:S:1:pos:R:3 energy=0.121/ -0.037/ -0.261 pbc="T T T"
O        0.00529177      -0.00839460       0.00000000
H        0.85202220       0.04417555       0.00000000
H       -0.21469146       1.01799971       0.00000000
3
Lattice="15.0 0.0 0.0 0.0 15.0 0.0 0.0 0.0 15.0" Properties=species:S:1:pos:R:3 energy=0.092/ -0.124/ 0.136 pbc="T T T"
O       -0.00391049       0.00291167       0.00000000
H        0.96274922       0.03597610       0.00000000
H       -0.17937242       0.84676077       0.00000000
3
Lattice="15.0 0.0 0.0 0.0 15.0 0.0 0.0 0.0 15.0" Properties=species:S:1:pos:R:3 energy=-0.11/ -0.092/ -0.101 pbc="T T T"
O        0.00671457       0.00278350       0.00000000
H        0.88890173      -0.03721883       0.00000000
H       -0.27415408       0.92198993       0.00000000
3
Lattice="15.0 0.0 0.0 0.0 15.0 0.0 0.0 0.0 15.0" Properties=species:S:1:pos:R:3 energy=-0.108/ 0.177/ -0.088 pbc="T T T"
O        0.00205803      -0.00246080       0.00000000
H        0.99157468      -0.04303491       0.00000000
H       -0.30292444       1.01103739       0.00000000
3
Lattice="15.0 0.0 0.0 0.0 15.0 0.0 0.0 0.0 15.0" Properties=species:S:1:pos:R:3 energy=-0.138/ 0.294/ 0.253 pbc="T T T"
O       -0.00873470       0.00347682       0.00000000
H        1.15628310      -0.05663469       0.00000000
H       -0.29634492       0.93040355       0.00000000
3
Lattice="15.0 0.0 0.0 0.0 15.0 0.0 0.0 0.0 15.0" Properties=species:S:1:pos:R:3 energy=0.085/ -0.173/ -0.209 pbc="T T T"
O        0.00676571      -0.00346105       0.00000000
H        0.82084594       0.03467420       0.00000000
H       -0.20690812       0.94920185       0.00000000
3
Lattice="15.0 0.0 0.0 0.0 15.0 0.0 0.0 0.0 15.0" Properties=species:S:1:pos:R:3 energy=0.358/ -0.153/ -0.072 pbc="T T T"
O       -0.00344578      -0.00863342       0.00000000
H        0.87843807       0.13209696       0.00000000
H       -0.10243390       0.93386806       0.00000000
3
Lattice="15.0 0.0 0.0 0.0 15.0 0.0 0.0 0.0 15.0" Properties=species:S:1:pos:R:3 energy=0.378/ 0.218/ -0.193 pbc="T T T"
O       -0.00634443      -0.01940417       0.00000000
H        0.97045533       0.13030477       0.00000000
H       -0.14844740       1.10660045       0.00000000
3
Lattice="15.0 0.0 0.0 0.0 15.0 0.0 0.0 0.0 15.0" Properties=species:S:1:pos:R:3 energy=-0.053/ -0.197/ 0.28 pbc="T T T"
O       -0.00361434       0.01166662       0.00000000
H        0.98732982      -0.01434777       0.00000000
H       -0.20865457       0.75813744       0.00000000
3
Lattice="15.0 0.0 0.0 0.0 15.0 0.0 0.0 0.0 15.0" Properties=species:S:1:pos:R:3 energy=0.383/ -0.185/ 0.163 pbc="T T T"
O       -0.01013508      -0.00354574       0.00000000
H        0.95150459       0.14176679       0.00000000
H       -0.06933622       0.84345320       0.00000000
3
Lattice="15.0 0.0 0.0 0.0 15.0 0.0 0.0 0.0 15.0" Properties=species:S:1:pos:R:3 energy=-0.165/ 0.023/ 0.246 pbc="T T T"
O       -0.00366387       0.00963125       0.00000000
H        1.05499743      -0.05986940       0.00000000
H       -0.27553721       0.83596249       0.00000000
3
Lattice="15.0 0.0 0.0 0.0 15.0 0.0 0.0 0.0 15.0" Properties=species:S:1:pos:R:3 energy=-0.395/ -0.084/ -0.078 pbc="T T T"
O        0.01224122       0.01122993       0.00000000
H        0.89892195      -0.13972477       0.00000000
H       -0.37188908       0.89044543       0.00000000
3
Lattice="15.0 0.0 0.0 0.0 15.0 0.0 0.0 0.0 15.0" Properties=species:S:1:pos:R:3 energy=-0.088/ -0.02/ 0.226 pbc="T T T"
O       -0.00413110       0.00786293       0.00000000
H        1.03261303      -0.03115733       0.00000000
H       -0.24573681       0.83531475       0.00000000
3
Lattice="15.0 0.0 0.0 0.0 15.0 0.0 0.0 0.0 15.0" Properties=species:S:1:pos:R:3 energy=0.289/ -0.134/ 0.021 pbc="T T T"
O       -0.00486797      -0.00502235       0.00000000
H        0.91861185       0.10704979       0.00000000
H       -0.12003713       0.90160523       0.00000000
3
Lattice="15.0 0.0 0.0 0.0 15.0 0.0 0.0 0.0 15.0" Properties=species:S:1:pos:R:3 energy=0.231/ 0.239/ -0.077 pbc="T T T"
O       -0.00670751      -0.01310072       0.00000000
H        1.01941055       0.07690254       0.00000000
H       -0.19164163       1.05996287       0.00000000
3
Lattice="15.0 0.0 0.0 0.0 15.0 0.0 0.0 0.0 15.0" Properties=species:S:1:pos:R:3 energy=-0.316/ -0.064/ 0.225 pbc="T T T"
O        0.00163562       0.01521632       0.00000000
H        1.01495217      -0.11168268       0.00000000
H       -0.31960014       0.79913674       0.00000000
3
Lattice="15.0 0.0 0.0 0.0 15.0 0.0 0.0 0.0 15.0" Properties=species:S:1:pos:R:3 energy=0.32/ 0.296/ -0.136 pbc="T T T"
O       -0.00791656      -0.01810906       0.00000000
H        1.01933603       0.10764189       0.00000000
H       -0.17237777       1.10870930       0.00000000
3
Lattice="15.0 0.0 0.0 0.0 15.0 0.0 0.0 0.0 15.0" Properties=species:S:1:pos:R:3 energy=-0.171/ 0.271/ -0.151 pbc="T T T"
O        0.00374692      -0.00397785       0.00000000
H        1.00287054      -0.06784009       0.00000000
H       -0.34102485       1.05991953       0.00000000
3
Lattice="15.0 0.0 0.0 0.0 15.0 0.0 0.0 0.0 15.0" Properties=species:S:1:pos:R:3 energy=0.003/ 0.099/ 0.266 pbc="T T T"
O       -0.00913005       0.00373209       0.00000000
H        1.09024903      -0.00128968       0.00000000
H       -0.22403487       0.87100665       0.00000000
3
Lattice="15.0 0.0 0.0 0.0 15.0 0.0 0.0 0.0 15.0" Properties=species:S:1:pos:R:3 energy=-0.075/ 0.171/ -0.056 pbc="T T T"