       3
Lattice="15.0 0.0 0.0 0.0 15.0 0.0 0.0 0.0 15.0" Properties=species:S:1:pos:R:3:forces:R:3 energy=        1.4856881726 pbc="T T T"
       O     0.0000000000     0.0000000000     0.0000000000      4.169166432     -2.920074253     -0.000000000
       H     1.1052600000     0.0000000000     0.0000000000     -5.688509089      1.628084688     -0.000000000
       H    -0.8295600000     0.4789400000     0.0000000000      1.519342657      1.291989616     -0.000000000
