       3
Lattice="15.0 0.0 0.0 0.0 15.0 0.0 0.0 0.0 15.0" Properties=species:S:1:pos:R:3:forces:R:3 energy=        3.9198950721 pbc="T T T"
       O     0.0000000000     0.0000000000     0.0000000000     26.918117810    -19.144160663     -0.000000000
       H     1.1789500000     0.0000000000     0.0000000000     -6.796831092      1.479769195     -0.000000000
       H    -0.5945500000     0.4352500000     0.0000000000    -20.121286718     17.664391468     -0.000000000
