       3
Lattice="15.0 0.0 0.0 0.0 15.0 0.0 0.0 0.0 15.0" Properties=species:S:1:pos:R:3:forces:R:3 energy=        2.7414251427 pbc="T T T"
       O     0.0000000000     0.0000000000     0.0000000000     -0.636576544      0.022473869     -0.000000000
       H     1.1421100000     0.0000000000     0.0000000000     -5.568962094      1.896569074     -0.000000000
       H    -1.0184500000     0.6640100000     0.0000000000      6.205538689     -1.919042892     -0.000000000
