       3
Lattice="15.0 0.0 0.0 0.0 15.0 0.0 0.0 0.0 15.0" Properties=species:S:1:pos:R:3:forces:R:3 energy=        4.9207336016 pbc="T T T"
       O     0.0000000000     0.0000000000     0.0000000000     -0.288996194     -0.123849841     -0.000000000
       H     1.4000000000     0.0000000000     0.0000000000     -5.457680017      1.712566087     -0.000000000
       H    -1.1110400000     0.7243700000     0.0000000000      5.746676211     -1.588716247     -0.000000000
