       3
Lattice="15.0 0.0 0.0 0.0 15.0 0.0 0.0 0.0 15.0" Properties=species:S:1:pos:R:3:forces:R:3 energy=        2.4295008944 pbc="T T T"
       O     0.0000000000     0.0000000000     0.0000000000     -1.070078009      0.374077432     -0.000000000
       H     1.1052600000     0.0000000000     0.0000000000     -5.020029716      1.920537115     -0.000000000
       H    -0.9810100000     0.7181700000     0.0000000000      6.090107776     -2.294614547     -0.000000000
