       3
Lattice="15.0 0.0 0.0 0.0 15.0 0.0 0.0 0.0 15.0" Properties=species:S:1:pos:R:3:forces:R:3 energy=        5.1639008382 pbc="T T T"
       O     0.0000000000     0.0000000000     0.0000000000     29.059513922    -17.160501856     -0.000000000
       H     1.3263200000     0.0000000000     0.0000000000     -7.122140639      1.460106880     -0.000000000
       H    -0.6381200000     0.3684200000     0.0000000000    -21.937373284     15.700394976     -0.000000000
