       3
Lattice="15.0 0.0 0.0 0.0 15.0 0.0 0.0 0.0 15.0" Properties=species:S:1:pos:R:3:forces:R:3 energy=        3.3031915370 pbc="T T T"
       O     0.0000000000     0.0000000000     0.0000000000     -0.477525765     -0.290969054     -0.000000000
       H     1.1789500000     0.0000000000     0.0000000000     -5.868617933      1.895209474     -0.000000000
       H    -1.0848100000     0.6263100000     0.0000000000      6.346143646     -1.604240421     -0.000000000
