       3
Lattice="15.0 0.0 0.0 0.0 15.0 0.0 0.0 0.0 15.0" Properties=species:S:1:pos:R:3:forces:R:3 energy=        2.9349102470 pbc="T T T"
       O     0.0000000000     0.0000000000     0.0000000000     21.106087160    -13.672000392     -0.000000000
       H     1.1421100000     0.0000000000     0.0000000000     -6.476477812      1.496518295     -0.000000000
       H    -0.6481000000     0.4225500000     0.0000000000    -14.629609348     12.175482097     -0.000000000
