       3
Lattice="15.0 0.0 0.0 0.0 15.0 0.0 0.0 0.0 15.0" Properties=species:S:1:pos:R:3:forces:R:3 energy=        2.7235416212 pbc="T T T"
       O     0.0000000000     0.0000000000     0.0000000000     -2.187354449     -0.175378063     -0.000000000
       H     1.0684200000     0.0000000000     0.0000000000     -4.331681517      1.984548461     -0.000000000
       H    -1.0848100000     0.6263100000     0.0000000000      6.519035966     -1.809170398     -0.000000000
