       3
Lattice="15.0 0.0 0.0 0.0 15.0 0.0 0.0 0.0 15.0" Properties=species:S:1:pos:R:3:forces:R:3 energy=        1.9678522232 pbc="T T T"
       O     0.0000000000     0.0000000000     0.0000000000     12.075595978     -7.798441825     -0.000000000
       H     1.1421100000     0.0000000000     0.0000000000     -6.339328985      1.555601656     -0.000000000
       H    -0.7098300000     0.4627900000     0.0000000000     -5.736266992      6.242840117     -0.000000000
