       3
Lattice="15.0 0.0 0.0 0.0 15.0 0.0 0.0 0.0 15.0" Properties=species:S:1:pos:R:3:forces:R:3 energy=        4.7095291992 pbc="T T T"
       O     0.0000000000     0.0000000000     0.0000000000      0.206355757     -0.268868458     -0.000000000
       H     1.2894700000     0.0000000000     0.0000000000     -5.769305375      1.855555794     -0.000000000
       H    -1.1727600000     0.7646100000     0.0000000000      5.562949618     -1.586687285     -0.000000000
