       3
Lattice="15.0 0.0 0.0 0.0 15.0 0.0 0.0 0.0 15.0" Properties=species:S:1:pos:R:3:forces:R:3 energy=        2.3534511686 pbc="T T T"
       O     0.0000000000     0.0000000000     0.0000000000      2.665572149     -1.389075288     -0.000000000
       H     1.2526300000     0.0000000000     0.0000000000     -6.497876908      1.674569690     -0.000000000
       H    -0.8323700000     0.6093600000     0.0000000000      3.832304759     -0.285494401     -0.000000000
