       3
Lattice="15.0 0.0 0.0 0.0 15.0 0.0 0.0 0.0 15.0" Properties=species:S:1:pos:R:3:forces:R:3 energy=        2.0261826537 pbc="T T T"
       O     0.0000000000     0.0000000000     0.0000000000     -1.609939530      0.313766316     -0.000000000
       H     1.0684200000     0.0000000000     0.0000000000     -4.386228319      1.919746295     -0.000000000
       H    -0.9512800000     0.6964100000     0.0000000000      5.996167798     -2.233512611     -0.000000000
