       3
Lattice="15.0 0.0 0.0 0.0 15.0 0.0 0.0 0.0 15.0" Properties=species:S:1:pos:R:3:forces:R:3 energy=        1.5433178908 pbc="T T T"
       O     0.0000000000     0.0000000000     0.0000000000      2.624814643     -2.076160561     -0.000000000
       H     1.1052600000     0.0000000000     0.0000000000     -5.612450113      1.664951600     -0.000000000
       H    -0.8614700000     0.4973700000     0.0000000000      2.987635471      0.411208961     -0.000000000
