       3
Lattice="15.0 0.0 0.0 0.0 15.0 0.0 0.0 0.0 15.0" Properties=species:S:1:pos:R:3:forces:R:3 energy=        2.8167364794 pbc="T T T"
       O     0.0000000000     0.0000000000     0.0000000000     -6.257230074      0.027319629     -0.000000000
       H     0.9578900000     0.0000000000     0.0000000000     -0.149655450      2.228496130     -0.000000000
       H    -1.1110400000     0.7243700000     0.0000000000      6.406885473     -2.255815708     -0.000000000
