       3
Lattice="15.0 0.0 0.0 0.0 15.0 0.0 0.0 0.0 15.0" Properties=species:S:1:pos:R:3:forces:R:3 energy=        3.0872235393 pbc="T T T"
       O     0.0000000000     0.0000000000     0.0000000000     24.867077608    -16.260160239     -0.000000000
       H     0.9947400000     0.0000000000     0.0000000000     -3.116623766      1.446928274     -0.000000000
       H    -0.6381200000     0.3684200000     0.0000000000    -21.750453790     14.813232017     -0.000000000
