       3
Lattice="15.0 0.0 0.0 0.0 15.0 0.0 0.0 0.0 15.0" Properties=species:S:1:pos:R:3:forces:R:3 energy=        3.2221958371 pbc="T T T"
       O     0.0000000000     0.0000000000     0.0000000000      9.451211995     -6.294340726     -0.000000000
       H     1.3631600000     0.0000000000     0.0000000000     -6.585949728      1.558329444     -0.000000000
       H    -0.7406900000     0.4829100000     0.0000000000     -2.865262267      4.736011283     -0.000000000
