       3
Lattice="15.0 0.0 0.0 0.0 15.0 0.0 0.0 0.0 15.0" Properties=species:S:1:pos:R:3:forces:R:3 energy=        4.2143023281 pbc="T T T"
       O     0.0000000000     0.0000000000     0.0000000000     21.680686564    -14.155661326     -0.000000000
       H     1.3263200000     0.0000000000     0.0000000000     -6.967021901      1.497667733     -0.000000000
       H    -0.6481000000     0.4225500000     0.0000000000    -14.713664663     12.657993593     -0.000000000
