       3
Lattice="15.0 0.0 0.0 0.0 15.0 0.0 0.0 0.0 15.0" Properties=species:S:1:pos:R:3:forces:R:3 energy=        2.1841684233 pbc="T T T"
       O     0.0000000000     0.0000000000     0.0000000000     10.643342437    -13.085851432     -0.000000000
       H     0.8842100000     0.0000000000     0.0000000000      3.796495291      1.552810363     -0.000000000
       H    -0.6481000000     0.4225500000     0.0000000000    -14.439837779     11.533041070     -0.000000000
