       3
Lattice="15.0 0.0 0.0 0.0 15.0 0.0 0.0 0.0 15.0" Properties=species:S:1:pos:R:3:forces:R:3 energy=        3.1751206917 pbc="T T T"
       O     0.0000000000     0.0000000000     0.0000000000      5.268147150     -3.508840494     -0.000000000
       H     1.3631600000     0.0000000000     0.0000000000     -6.504272684      1.597478776     -0.000000000
       H    -0.8295600000     0.4789400000     0.0000000000      1.236125534      1.911361718     -0.000000000
