       3
Lattice="15.0 0.0 0.0 0.0 15.0 0.0 0.0 0.0 15.0" Properties=species:S:1:pos:R:3:forces:R:3 energy=        1.7052457004 pbc="T T T"
       O     0.0000000000     0.0000000000     0.0000000000     -5.582743676     -0.235887616     -0.000000000
       H     0.9578900000     0.0000000000     0.0000000000     -0.592954879      1.931159941     -0.000000000
       H    -0.9891000000     0.5710500000     0.0000000000      6.175698555     -1.695272325     -0.000000000
