       3
Lattice="15.0 0.0 0.0 0.0 15.0 0.0 0.0 0.0 15.0" Properties=species:S:1:pos:R:3:forces:R:3 energy=        2.8459307999 pbc="T T T"
       O     0.0000000000     0.0000000000     0.0000000000     -0.102170443     -0.380001616     -0.000000000
       H     1.1789500000     0.0000000000     0.0000000000     -6.036909672      1.821307399     -0.000000000
       H    -1.0210000000     0.5894700000     0.0000000000      6.139080064     -1.441305782     -0.000000000
