       3
Lattice="15.0 0.0 0.0 0.0 15.0 0.0 0.0 0.0 15.0" Properties=species:S:1:pos:R:3:forces:R:3 energy=        2.2165626532 pbc="T T T"
       O     0.0000000000     0.0000000000     0.0000000000    -18.717186513     -0.341400495     -0.000000000
       H     0.8105300000     0.0000000000     0.0000000000     12.792491251      2.037068307     -0.000000000
       H    -0.9571800000     0.5526300000     0.0000000000      5.924695262     -1.695667864     -0.000000000
