       3
Lattice="15.0 0.0 0.0 0.0 15.0 0.0 0.0 0.0 15.0" Properties=species:S:1:pos:R:3:forces:R:3 energy=        3.1074439583 pbc="T T T"
       O     0.0000000000     0.0000000000     0.0000000000      9.167923498     -6.435289440     -0.000000000
       H     1.3631600000     0.0000000000     0.0000000000     -6.519585153      1.544850789     -0.000000000
       H    -0.7134600000     0.5223100000     0.0000000000     -2.648338345      4.890438702     -0.000000000
