       3
Lattice="15.0 0.0 0.0 0.0 15.0 0.0 0.0 0.0 15.0" Properties=species:S:1:pos:R:3:forces:R:3 energy=        3.7647000994 pbc="T T T"
       O     0.0000000000     0.0000000000     0.0000000000     -0.519826705     -0.393210716     -0.000000000
       H     1.1789500000     0.0000000000     0.0000000000     -5.701204122      1.966502702     -0.000000000
       H    -1.1486300000     0.6631600000     0.0000000000      6.221030776     -1.573292037     -0.000000000
