       3
Lattice="15.0 0.0 0.0 0.0 15.0 0.0 0.0 0.0 15.0" Properties=species:S:1:pos:R:3:forces:R:3 energy=        3.0842811232 pbc="T T T"
       O     0.0000000000     0.0000000000     0.0000000000     20.722526415    -14.589498423     -0.000000000
       H     1.1789500000     0.0000000000     0.0000000000     -6.732173628      1.505115862     -0.000000000
       H    -0.6242700000     0.4570100000     0.0000000000    -13.990352787     13.084382560     -0.000000000
