       3
Lattice="15.0 0.0 0.0 0.0 15.0 0.0 0.0 0.0 15.0" Properties=species:S:1:pos:R:3:forces:R:3 energy=        3.1274208654 pbc="T T T"
       O     0.0000000000     0.0000000000     0.0000000000      1.177922570     -0.466192388     -0.000000000
       H     1.3263200000     0.0000000000     0.0000000000     -6.232189986      1.675092549     -0.000000000
       H    -0.8918200000     0.6528800000     0.0000000000      5.054267416     -1.208900161     -0.000000000
