       3
Lattice="15.0 0.0 0.0 0.0 15.0 0.0 0.0 0.0 15.0" Properties=species:S:1:pos:R:3:forces:R:3 energy=        3.7877883972 pbc="T T T"
       O     0.0000000000     0.0000000000     0.0000000000     -0.836680661     -0.473432875     -0.000000000
       H     1.1421100000     0.0000000000     0.0000000000     -5.289761036      2.038439837     -0.000000000
       H    -1.1805300000     0.6815800000     0.0000000000      6.126441697     -1.565006910     -0.000000000
