       3
Lattice="15.0 0.0 0.0 0.0 15.0 0.0 0.0 0.0 15.0" Properties=species:S:1:pos:R:3:forces:R:3 energy=        3.3290133410 pbc="T T T"
       O     0.0000000000     0.0000000000     0.0000000000     -8.339237481     -0.268971559     -0.000000000
       H     0.9210500000     0.0000000000     0.0000000000      2.215974337      2.386724361     -0.000000000
       H    -1.1727600000     0.7646100000     0.0000000000      6.123263144     -2.117752802     -0.000000000
