       3
Lattice="15.0 0.0 0.0 0.0 15.0 0.0 0.0 0.0 15.0" Properties=species:S:1:pos:R:3:forces:R:3 energy=        1.4035647892 pbc="T T T"
       O     0.0000000000     0.0000000000     0.0000000000     -7.269542207     -0.213262772     -0.000000000
       H     0.9210500000     0.0000000000     0.0000000000      1.611300107      1.956236488     -0.000000000
       H    -0.9258600000     0.6036400000     0.0000000000      5.658242099     -1.742973716     -0.000000000
