       3
Lattice="15.0 0.0 0.0 0.0 15.0 0.0 0.0 0.0 15.0" Properties=species:S:1:pos:R:3:forces:R:3 energy=        2.4908280004 pbc="T T T"
       O     0.0000000000     0.0000000000     0.0000000000      7.028923244     -4.580010810     -0.000000000
       H     1.2894700000     0.0000000000     0.0000000000     -6.705695109      1.588046937     -0.000000000
       H    -0.7431900000     0.5440700000     0.0000000000     -0.323228186      2.991963874     -0.000000000
