       3
Lattice="15.0 0.0 0.0 0.0 15.0 0.0 0.0 0.0 15.0" Properties=species:S:1:pos:R:3:forces:R:3 energy=        2.8167350372 pbc="T T T"
       O     0.0000000000     0.0000000000     0.0000000000     13.159815009     -7.656652001     -0.000000000
       H     1.2526300000     0.0000000000     0.0000000000     -7.027152370      1.520521817     -0.000000000
       H    -0.7338400000     0.4236800000     0.0000000000     -6.132662639      6.136130184     -0.000000000
