       3
Lattice="15.0 0.0 0.0 0.0 15.0 0.0 0.0 0.0 15.0" Properties=species:S:1:pos:R:3:forces:R:3 energy=        3.0932051162 pbc="T T T"
       O     0.0000000000     0.0000000000     0.0000000000      7.023545676     -4.704025819     -0.000000000
       H     1.3631600000     0.0000000000     0.0000000000     -6.509343622      1.579011716     -0.000000000
       H    -0.7715500000     0.5030300000     0.0000000000     -0.514202003      3.125014154     -0.000000000
