       3
Lattice="15.0 0.0 0.0 0.0 15.0 0.0 0.0 0.0 15.0" Properties=species:S:1:pos:R:3:forces:R:3 energy=        4.3577930414 pbc="T T T"
       O     0.0000000000     0.0000000000     0.0000000000     20.786205626    -15.031634684     -0.000000000
       H     1.3631600000     0.0000000000     0.0000000000     -6.727097908      1.488679255     -0.000000000
       H    -0.6242700000     0.4570100000     0.0000000000    -14.059107666     13.542955429     -0.000000000
