       3
Lattice="15.0 0.0 0.0 0.0 15.0 0.0 0.0 0.0 15.0" Properties=species:S:1:pos:R:3:forces:R:3 energy=        2.6840828883 pbc="T T T"
       O     0.0000000000     0.0000000000     0.0000000000     -6.392684697     -0.156407118     -0.000000000
       H     0.9578900000     0.0000000000     0.0000000000     -0.277273861      2.157034495     -0.000000000
       H    -1.1167100000     0.6447300000     0.0000000000      6.669958558     -2.000627376     -0.000000000
