       3
Lattice="15.0 0.0 0.0 0.0 15.0 0.0 0.0 0.0 15.0" Properties=species:S:1:pos:R:3:forces:R:3 energy=        2.4100833718 pbc="T T T"
       O     0.0000000000     0.0000000000     0.0000000000     19.126628663    -14.325082963     -0.000000000
       H     1.0684200000     0.0000000000     0.0000000000     -5.179965983      1.517676170     -0.000000000
       H    -0.6242700000     0.4570100000     0.0000000000    -13.946662679     12.807406845     -0.000000000
