       3
Lattice="15.0 0.0 0.0 0.0 15.0 0.0 0.0 0.0 15.0" Properties=species:S:1:pos:R:3:forces:R:3 energy=        2.7235521601 pbc="T T T"
       O     0.0000000000     0.0000000000     0.0000000000      1.805782710     -1.244957380     -0.000000000
       H     1.2526300000     0.0000000000     0.0000000000     -6.549794036      1.692555028     -0.000000000
       H    -0.9252800000     0.5342100000     0.0000000000      4.744011325     -0.447597596     -0.000000000
