       3
Lattice="15.0 0.0 0.0 0.0 15.0 0.0 0.0 0.0 15.0" Properties=species:S:1:pos:R:3:forces:R:3 energy=        3.2778943115 pbc="T T T"
       O     0.0000000000     0.0000000000     0.0000000000      0.215905250      0.249112040     -0.000000000
       H     1.2526300000     0.0000000000     0.0000000000     -6.118035574      1.788270044     -0.000000000
       H    -0.9810100000     0.7181700000     0.0000000000      5.902130324     -2.037382085     -0.000000000
