       3
Lattice="15.0 0.0 0.0 0.0 15.0 0.0 0.0 0.0 15.0" Properties=species:S:1:pos:R:3:forces:R:3 energy=        5.2271266595 pbc="T T T"
       O     0.0000000000     0.0000000000     0.0000000000     10.938600504    -22.340154782     -0.000000000
       H     0.7736800000     0.0000000000     0.0000000000     17.977749699      1.503470510     -0.000000000
       H    -0.5863800000     0.3823100000     0.0000000000    -28.916350254     20.836684272     -0.000000000
