       3
Lattice="15.0 0.0 0.0 0.0 15.0 0.0 0.0 0.0 15.0" Properties=species:S:1:pos:R:3:forces:R:3 energy=        3.4364662715 pbc="T T T"
       O     0.0000000000     0.0000000000     0.0000000000      0.646766088     -0.477275236     -0.000000000
       H     1.3263200000     0.0000000000     0.0000000000     -6.200982847      1.717517057     -0.000000000
       H    -0.9567300000     0.6237700000     0.0000000000      5.554216759     -1.240241821     -0.000000000
