       3
Lattice="15.0 0.0 0.0 0.0 15.0 0.0 0.0 0.0 15.0" Properties=species:S:1:pos:R:3:forces:R:3 energy=        1.3043519262 pbc="T T T"
       O     0.0000000000     0.0000000000     0.0000000000     -0.354319934     -1.319643540     -0.000000000
       H     1.0315800000     0.0000000000     0.0000000000     -3.838519427      1.735917577     -0.000000000
       H    -0.8933700000     0.5157900000     0.0000000000      4.192839361     -0.416274037     -0.000000000
