       3
Lattice="15.0 0.0 0.0 0.0 15.0 0.0 0.0 0.0 15.0" Properties=species:S:1:pos:R:3:forces:R:3 energy=        1.9908233297 pbc="T T T"
       O     0.0000000000     0.0000000000     0.0000000000     -2.741707640      0.059799980     -0.000000000
       H     1.0315800000     0.0000000000     0.0000000000     -3.466977618      1.950629475     -0.000000000
       H    -0.9875900000     0.6438900000     0.0000000000      6.208685258     -2.010429455     -0.000000000
