       3
Lattice="15.0 0.0 0.0 0.0 15.0 0.0 0.0 0.0 15.0" Properties=species:S:1:pos:R:3:forces:R:3 energy=        3.5961556045 pbc="T T T"
       O     0.0000000000     0.0000000000     0.0000000000     11.957713722     -8.705308082     -0.000000000
       H     1.4000000000     0.0000000000     0.0000000000     -6.373075090      1.514949308     -0.000000000
       H    -0.6837300000     0.5005400000     0.0000000000     -5.584638580      7.190358774     -0.000000000
