       3
Lattice="15.0 0.0 0.0 0.0 15.0 0.0 0.0 0.0 15.0" Properties=species:S:1:pos:R:3:forces:R:3 energy=        2.2203613654 pbc="T T T"
       O     0.0000000000     0.0000000000     0.0000000000    -11.243960440      0.223310802     -0.000000000
       H     0.8842100000     0.0000000000     0.0000000000      4.690324712      2.167622611     -0.000000000
       H    -1.0184500000     0.6640100000     0.0000000000      6.553635780     -2.390933362     -0.000000000
