       3
Lattice="15.0 0.0 0.0 0.0 15.0 0.0 0.0 0.0 15.0" Properties=species:S:1:pos:R:3:forces:R:3 energy=        3.4472469655 pbc="T T T"
       O     0.0103495900    -0.0211357700     0.0000000000    -28.438838733      1.444468292     -0.000000000
       H     0.7281125300     0.1182089100     0.0000000000     28.668429869      3.853315464     -0.000000000
       H    -0.1710510500     1.1461773200     0.0000000000     -0.229591187     -5.297783807     -0.000000000
       3
Lattice="15.0 0.0 0.0 0.0 15.0 0.0 0.0 0.0 15.0" Properties=species:S:1:pos:R:3:forces:R:3 energy=        0.3911733610 pbc="T T T"
       O    -0.0129854700    -0.0074068700     0.0000000000      4.224156081     -1.133458662     -0.000000000
       H     1.0170770000     0.1381428700     0.0000000000     -2.437540902     -1.720337919     -0.000000000
       H    -0.0896708500     0.9083563800     0.0000000000     -1.786615230      2.853796530     -0.000000000
       3
Lattice="15.0 0.0 0.0 0.0 15.0 0.0 0.0 0.0 15.0" Properties=species:S:1:pos:R:3:forces:R:3 energy=        0.9650745505 pbc="T T T"
       O    -0.0165353800    -0.0060472300     0.0000000000      5.399754733      1.963643171     -0.000000000
       H     1.1866069500     0.0459637800     0.0000000000     -5.698972044     -0.264532856     -0.000000000
       H    -0.2028635200     0.9789582200     0.0000000000      0.299217311     -1.699110315     -0.000000000
       3
Lattice="15.0 0.0 0.0 0.0 15.0 0.0 0.0 0.0 15.0" Properties=species:S:1:pos:R:3:forces:R:3 energy=        2.0169424861 pbc="T T T"
       O    -0.0042682800     0.0099534600     0.0000000000      5.611313120    -23.136592774     -0.000000000
       H     0.9491590200     0.0287500600     0.0000000000      0.335239100     -0.669542936     -0.000000000
       H    -0.1601041000     0.7422282900     0.0000000000     -5.946552271     23.806135710     -0.000000000
       3
Lattice="15.0 0.0 0.0 0.0 15.0 0.0 0.0 0.0 15.0" Properties=species:S:1:pos:R:3:forces:R:3 energy=        2.1730034937 pbc="T T T"
       O     0.0146504900     0.0027464000     0.0000000000    -26.119203279      1.204368847     -0.000000000
       H     0.7546532300    -0.0306571200     0.0000000000     26.021352240     -1.095211428     -0.000000000
       H    -0.2658543200     0.9160165200     0.0000000000      0.097851090     -0.109157419     -0.000000000
       3
Lattice="15.0 0.0 0.0 0.0 15.0 0.0 0.0 0.0 15.0" Properties=species:S:1:pos:R:3:forces:R:3 energy=        0.9145297330 pbc="T T T"
       O    -0.0173413900    -0.0202661400     0.0000000000      4.900175731      5.715110814     -0.000000000
       H     1.0751372900     0.1872593800     0.0000000000     -3.919530657     -1.929481164     -0.000000000
       H    -0.0785980600     1.0633259800     0.0000000000     -0.980645125     -3.785629701     -0.000000000
       3
Lattice="15.0 0.0 0.0 0.0 15.0 0.0 0.0 0.0 15.0" Properties=species:S:1:pos:R:3:forces:R:3 energy=        1.0683227287 pbc="T T T"
       O     0.0055575000     0.0037215300     0.0000000000      0.891341826      2.330806646     -0.000000000
       H     1.0698940900    -0.1664596100     0.0000000000     -4.126459514      1.999021567     -0.000000000
       H    -0.4367862300     1.0363450300     0.0000000000      3.235117688     -4.329828213     -0.000000000
       3
Lattice="15.0 0.0 0.0 0.0 15.0 0.0 0.0 0.0 15.0" Properties=species:S:1:pos:R:3:forces:R:3 energy=        1.6211405227 pbc="T T T"
       O    -0.0145273000     0.0092243800     0.0000000000      6.150237988     -4.308604930     -0.000000000
       H     1.2674636500    -0.0896915300     0.0000000000     -6.223359528      1.248135883     -0.000000000
       H    -0.3155937100     0.8722429700     0.0000000000      0.073121540      3.060468996     -0.000000000
       3
Lattice="15.0 0.0 0.0 0.0 15.0 0.0 0.0 0.0 15.0" Properties=species:S:1:pos:R:3:forces:R:3 energy=        0.7146656267 pbc="T T T"
       O     0.0074789300    -0.0013877700     0.0000000000    -11.895156798      0.689141230     -0.000000000
       H     0.8281997500     0.0136412700     0.0000000000     12.112478573     -0.173258599     -0.000000000
       H    -0.2255817700     0.9373305500     0.0000000000     -0.217321775     -0.515882631     -0.000000000
       3
Lattice="15.0 0.0 0.0 0.0 15.0 0.0 0.0 0.0 15.0" Properties=species:S:1:pos:R:3:forces:R:3 energy=        2.3673369865 pbc="T T T"
       O     0.0044391200     0.0147993100     0.0000000000      1.482900183      0.493680785     -0.000000000
       H     1.2088678600    -0.2954989700     0.0000000000     -5.586088837      3.087564836     -0.000000000
       H    -0.5580139600     0.9895730900     0.0000000000      4.103188654     -3.581245621     -0.000000000
       3
Lattice="15.0 0.0 0.0 0.0 15.0 0.0 0.0 0.0 15.0" Properties=species:S:1:pos:R:3:forces:R:3 energy=        8.9380181888 pbc="T T T"
       O    -0.0122537700     0.0161653300     0.0000000000     15.300351138    -75.321061264     -0.000000000
       H     1.0130337000     0.0579895800     0.0000000000     -2.579377623     -1.185820334     -0.000000000
       H    -0.0972425400     0.6144019300     0.0000000000    -12.720973515     76.506881598     -0.000000000
       3
Lattice="15.0 0.0 0.0 0.0 15.0 0.0 0.0 0.0 15.0" Properties=species:S:1:pos:R:3:forces:R:3 energy=        2.1177706442 pbc="T T T"
       O    -0.0231753500     0.0042686800     0.0000000000      5.699371799     -2.543484132     -0.000000000
       H     1.3640829100    -0.0425247000     0.0000000000     -5.986604678      0.719260638     -0.000000000
       H    -0.2749607300     0.9037268600     0.0000000000      0.287232879      1.824223494     -0.000000000
       3
Lattice="15.0 0.0 0.0 0.0 15.0 0.0 0.0 0.0 15.0" Properties=species:S:1:pos:R:3:forces:R:3 energy=        4.6191044519 pbc="T T T"
       O     0.0238182600     0.0050164300     0.0000000000    -46.063299870      8.560592238     -0.000000000
       H     0.6909624400    -0.1013361400     0.0000000000     44.143706042     -5.834280679     -0.000000000
       H    -0.3476645700     0.9506686300     0.0000000000      1.919593828     -2.726311559     -0.000000000
       3
Lattice="15.0 0.0 0.0 0.0 15.0 0.0 0.0 0.0 15.0" Properties=species:S:1:pos:R:3:forces:R:3 energy=        1.9418183419 pbc="T T T"
       O    -0.0128993800    -0.0316454100     0.0000000000      4.023670926      7.052353564     -0.000000000
       H     1.0765703100     0.1672592400     0.0000000000     -4.117867140     -1.359009462     -0.000000000
       H    -0.1505292900     1.2639238500     0.0000000000      0.094196214     -5.693344102     -0.000000000
       3
Lattice="15.0 0.0 0.0 0.0 15.0 0.0 0.0 0.0 15.0" Properties=species:S:1:pos:R:3:forces:R:3 energy=        1.6051363284 pbc="T T T"
       O     0.0075089900     0.0067535800     0.0000000000      0.891547103      1.871186772     -0.000000000
       H     1.1019671100    -0.2249691900     0.0000000000     -4.707892965      2.566189503     -0.000000000
       H    -0.4998324000     1.0467341600     0.0000000000      3.816345863     -4.437376275     -0.000000000
       3
Lattice="15.0 0.0 0.0 0.0 15.0 0.0 0.0 0.0 15.0" Properties=species:S:1:pos:R:3:forces:R:3 energy=        6.2140076555 pbc="T T T"
       O     0.0199489800    -0.0051527000     0.0000000000    -57.725753314      3.763688719     -0.000000000
       H     0.6649098400    -0.0013778400     0.0000000000     56.855173464      0.049533971     -0.000000000
       H    -0.2602008300     1.0121012400     0.0000000000      0.870579849     -3.813222691     -0.000000000
       3
Lattice="15.0 0.0 0.0 0.0 15.0 0.0 0.0 0.0 15.0" Properties=species:S:1:pos:R:3:forces:R:3 energy=        1.1700822019 pbc="T T T"
       O     0.0081468300     0.0153537700     0.0000000000      1.405327033     -0.267280338     -0.000000000
       H     1.0876812400    -0.2488357000     0.0000000000     -4.737547569      2.809083533     -0.000000000
       H    -0.4956703000     0.9341093300     0.0000000000      3.332220587     -2.541803247     -0.000000000
       3
Lattice="15.0 0.0 0.0 0.0 15.0 0.0 0.0 0.0 15.0" Properties=species:S:1:pos:R:3:forces:R:3 energy=        0.9220365516 pbc="T T T"
       O    -0.0076787500    -0.0248531100     0.0000000000     -0.447966549      5.981311288     -0.000000000
       H     0.9102956300     0.2106338400     0.0000000000      1.852699966     -1.552286629     -0.000000000
       H    -0.0671089500     1.1127493600     0.0000000000     -1.404733417     -4.429024660     -0.000000000
       3
Lattice="15.0 0.0 0.0 0.0 15.0 0.0 0.0 0.0 15.0" Properties=species:S:1:pos:R:3:forces:R:3 energy=        2.3039008238 pbc="T T T"
       O     0.0126945600     0.0353420000     0.0000000000     13.243466970    -19.460504718     -0.000000000
       H     0.9723810800    -0.2783311300     0.0000000000     -2.873411845      2.539555896     -0.000000000
       H    -0.4525469400     0.6463765700     0.0000000000    -10.370055125     16.920948822     -0.000000000
       3
Lattice="15.0 0.0 0.0 0.0 15.0 0.0 0.0 0.0 15.0" Properties=species:S:1:pos:R:3:forces:R:3 energy=        1.9467807382 pbc="T T T"
       O    -0.0265114000    -0.0269623800     0.0000000000      5.975665915      6.818502674     -0.000000000
       H     1.1936436300     0.2293473300     0.0000000000     -5.087437593     -2.007890078     -0.000000000
       H    -0.0515685200     1.1275126500     0.0000000000     -0.888228321     -4.810612545     -0.000000000
       3
Lattice="15.0 0.0 0.0 0.0 15.0 0.0 0.0 0.0 15.0" Properties=species:S:1:pos:R:3:forces:R:3 energy=        2.2385042740 pbc="T T T"
       O     0.0055113900    -0.0276201800     0.0000000000    -13.263519527      4.188037669     -0.000000000
       H     0.8032415000     0.1399277900     0.0000000000     13.315678750      1.473365706     -0.000000000
       H    -0.1693935400     1.2273710400     0.0000000000     -0.052159275     -5.661403375     -0.000000000
       3
Lattice="15.0 0.0 0.0 0.0 15.0 0.0 0.0 0.0 15.0" Properties=species:S:1:pos:R:3:forces:R:3 energy=        2.5758427051 pbc="T T T"
       O    -0.0111143200     0.0205209300     0.0000000000      5.187626795     -5.155588571     -0.000000000
       H     1.3485239700    -0.2302934800     0.0000000000     -5.848210820      2.373559690     -0.000000000
       H    -0.4508241900     0.8335614300     0.0000000000      0.660584025      2.782028882     -0.000000000
       3
Lattice="15.0 0.0 0.0 0.0 15.0 0.0 0.0 0.0 15.0" Properties=species:S:1:pos:R:3:forces:R:3 energy=        2.2787454186 pbc="T T T"
       O    -0.0034237600     0.0263402400     0.0000000000      9.936966939    -13.126008020     -0.000000000
       H     1.2007253300    -0.2286393600     0.0000000000     -6.201826735      2.738377237     -0.000000000
       H    -0.4250803700     0.7395498900     0.0000000000     -3.735140205     10.387630783     -0.000000000
       3
Lattice="15.0 0.0 0.0 0.0 15.0 0.0 0.0 0.0 15.0" Properties=species:S:1:pos:R:3:forces:R:3 energy=        1.2941206818 pbc="T T T"
       O    -0.0083280500    -0.0002977900     0.0000000000      3.783216874      2.311721853     -0.000000000
       H     1.1965501300    -0.0810207900     0.0000000000     -5.858624718      1.172778870     -0.000000000
       H    -0.3430663300     1.0146957900     0.0000000000      2.075407844     -3.484500671     -0.000000000
       3
Lattice="15.0 0.0 0.0 0.0 15.0 0.0 0.0 0.0 15.0" Properties=species:S:1:pos:R:3:forces:R:3 energy=        1.3029678163 pbc="T T T"
       O    -0.0119866800    -0.0145859300     0.0000000000      4.212783623      5.265676936     -0.000000000
       H     1.1493984500     0.0457042100     0.0000000000     -5.308062414     -0.196365526     -0.000000000
       H    -0.2378460500     1.1147331900     0.0000000000      1.095278842     -5.069311410     -0.000000000
       3
Lattice="15.0 0.0 0.0 0.0 15.0 0.0 0.0 0.0 15.0" Properties=species:S:1:pos:R:3:forces:R:3 energy=        1.7030421251 pbc="T T T"
       O    -0.0051359400     0.0030198300     0.0000000000      0.146209656    -17.187112323     -0.000000000
       H     0.8938599100     0.1042318800     0.0000000000      4.255807353     -1.522079855     -0.000000000
       H    -0.0910325800     0.7767876700     0.0000000000     -4.402017008     18.709192178     -0.000000000
       3
Lattice="15.0 0.0 0.0 0.0 15.0 0.0 0.0 0.0 15.0" Properties=species:S:1:pos:R:3:forces:R:3 energy=        0.9824043883 pbc="T T T"
       O     0.0091902400    -0.0020865600     0.0000000000     -1.768025580      3.694464922     -0.000000000
       H     0.9889597800    -0.1300809700     0.0000000000     -1.310983495      1.408457764     -0.000000000
       H    -0.4135052200     1.0921446000     0.0000000000      3.079009075     -5.102922635     -0.000000000
       3
Lattice="15.0 0.0 0.0 0.0 15.0 0.0 0.0 0.0 15.0" Properties=species:S:1:pos:R:3:forces:R:3 energy=        4.4427472687 pbc="T T T"
       O    -0.0058092400     0.0151901100     0.0000000000     11.777185273    -42.733792467     -0.000000000
       H     0.9716841700     0.0137489100     0.0000000000     -1.021630997     -0.508539917     -0.000000000
       H    -0.1581736100     0.6741201200     0.0000000000    -10.755554276     43.242332384     -0.000000000
       3
Lattice="15.0 0.0 0.0 0.0 15.0 0.0 0.0 0.0 15.0" Properties=species:S:1:pos:R:3:forces:R:3 energy=        2.3629548023 pbc="T T T"
       O    -0.0053083900     0.0243477700     0.0000000000     11.291156249    -15.989326326     -0.000000000
       H     1.1893407800    -0.1902945600     0.0000000000     -6.210325829      2.405983064     -0.000000000
       H    -0.3837843400     0.7328268100     0.0000000000     -5.080830472     13.583343262     -0.000000000
       3
Lattice="15.0 0.0 0.0 0.0 15.0 0.0 0.0 0.0 15.0" Properties=species:S:1:pos:R:3:forces:R:3 energy=        1.3021812467 pbc="T T T"
       O    -0.0255760600    -0.0170381300     0.0000000000      5.701891378      0.621491978     -0.000000000
       H     1.0675591800     0.2844566000     0.0000000000     -2.903092160     -3.403742283     -0.000000000
       H     0.0596726800     0.9148973400     0.0000000000     -2.798799270      2.782250305     -0.000000000
       3
Lattice="15.0 0.0 0.0 0.0 15.0 0.0 0.0 0.0 15.0" Properties=species:S:1:pos:R:3:forces:R:3 energy=        2.4246866614 pbc="T T T"
       O     0.0082299200    -0.0056017300     0.0000000000    -25.380560781     -1.915620649     -0.000000000
       H     0.7414069800     0.0850607700     0.0000000000     27.028591377      1.354586237     -0.000000000
       H    -0.1507059000     0.9327889700     0.0000000000     -1.648030596      0.561034412     -0.000000000
       3
Lattice="15.0 0.0 0.0 0.0 15.0 0.0 0.0 0.0 15.0" Properties=species:S:1:pos:R:3:forces:R:3 energy=        2.1748774112 pbc="T T T"
       O    -0.0033153300    -0.0242002200     0.0000000000    -11.447766999      0.712362262     -0.000000000
       H     0.7523352500     0.2774618300     0.0000000000     15.117096342      0.943437491     -0.000000000
       H     0.0216025500     1.0355586200     0.0000000000     -3.669329343     -1.655799754     -0.000000000
       3
Lattice="15.0 0.0 0.0 0.0 15.0 0.0 0.0 0.0 15.0" Properties=species:S:1:pos:R:3:forces:R:3 energy=        1.7252356553 pbc="T T T"
       O    -0.0261714200    -0.0021236400     0.0000000000      6.722005476     -3.569920318     -0.000000000
       H     1.2888730600     0.0729430700     0.0000000000     -5.921018582     -0.491934337     -0.000000000
       H    -0.1521981100     0.8897089500     0.0000000000     -0.800986945      4.061854654     -0.000000000
       3
Lattice="15.0 0.0 0.0 0.0 15.0 0.0 0.0 0.0 15.0" Properties=species:S:1:pos:R:3:forces:R:3 energy=        0.7253341336 pbc="T T T"
       O    -0.0070045300    -0.0081026500     0.0000000000      3.336663712      3.997546963     -0.000000000
       H     1.0959892500     0.0053490500     0.0000000000     -4.612390990      0.195086041     -0.000000000
       H    -0.2635083000     1.0521940100     0.0000000000      1.275727278     -4.192633004     -0.000000000
       3
Lattice="15.0 0.0 0.0 0.0 15.0 0.0 0.0 0.0 15.0" Properties=species:S:1:pos:R:3:forces:R:3 energy=        2.1664332283 pbc="T T T"
       O    -0.0019459800    -0.0345318700     0.0000000000     -7.814136052      4.314762416     -0.000000000
       H     0.7995226100     0.2564987800     0.0000000000      9.454768347      0.586681127     -0.000000000
       H    -0.0473176700     1.2204928500     0.0000000000     -1.640632295     -4.901443543     -0.000000000
       3
Lattice="15.0 0.0 0.0 0.0 15.0 0.0 0.0 0.0 15.0" Properties=species:S:1:pos:R:3:forces:R:3 energy=        7.2301724976 pbc="T T T"
       O    -0.0157783200     0.0135526500     0.0000000000     12.934706028    -61.249305615     -0.000000000
       H     1.0604583500     0.0728321900     0.0000000000     -3.863728642     -1.264024228     -0.000000000
       H    -0.0887297100     0.6410245600     0.0000000000     -9.070977385     62.513329843     -0.000000000
       3
Lattice="15.0 0.0 0.0 0.0 15.0 0.0 0.0 0.0 15.0" Properties=species:S:1:pos:R:3:forces:R:3 energy=        1.6338661505 pbc="T T T"
       O     0.0175200800    -0.0030404300     0.0000000000     -6.488827906      4.346960253     -0.000000000
       H     0.9164996600    -0.1734652400     0.0000000000      2.895380801      1.093004906     -0.000000000
       H    -0.4732467700     1.1506675000     0.0000000000      3.593447054     -5.439965159     -0.000000000
       3
Lattice="15.0 0.0 0.0 0.0 15.0 0.0 0.0 0.0 15.0" Properties=species:S:1:pos:R:3:forces:R:3 energy=        4.1214919178 pbc="T T T"
       O    -0.0119138000     0.0166262300     0.0000000000     15.231315957    -37.059510379     -0.000000000
       H     1.1091296300    -0.0222733200     0.0000000000     -5.301408808      0.359009680     -0.000000000
       H    -0.1987362300     0.6873509000     0.0000000000     -9.929907150     36.700500699     -0.000000000
       3
Lattice="15.0 0.0 0.0 0.0 15.0 0.0 0.0 0.0 15.0" Properties=species:S:1:pos:R:3:forces:R:3 energy=        1.2309839968 pbc="T T T"
       O    -0.0142390100     0.0037892000     0.0000000000      5.590787171     -1.574044651     -0.000000000
       H     1.2292050500    -0.0464095600     0.0000000000     -6.105429192      0.792045312     -0.000000000
       H    -0.2819092900     0.9152209600     0.0000000000      0.514641970      0.781999339     -0.000000000
       3
Lattice="15.0 0.0 0.0 0.0 15.0 0.0 0.0 0.0 15.0" Properties=species:S:1:pos:R:3:forces:R:3 energy=        0.6434757211 pbc="T T T"
       O     0.0023521200     0.0103829100     0.0000000000      1.357331200    -10.583929665     -0.000000000
       H     0.9272385700    -0.0371711200     0.0000000000      1.684005386      0.097281488     -0.000000000
       H    -0.2432558600     0.8013341400     0.0000000000     -3.041336585     10.486648177     -0.000000000
       3
Lattice="15.0 0.0 0.0 0.0 15.0 0.0 0.0 0.0 15.0" Properties=species:S:1:pos:R:3:forces:R:3 energy=        0.7705940400 pbc="T T T"
       O     0.0036733800    -0.0133789300     0.0000000000     -3.235396961      5.221985337     -0.000000000
       H     0.9333790200     0.0166505700     0.0000000000      1.848678245      0.168303721     -0.000000000
       H    -0.2703639700     1.1246301600     0.0000000000      1.386718768     -5.390289058     -0.000000000
       3
Lattice="15.0 0.0 0.0 0.0 15.0 0.0 0.0 0.0 15.0" Properties=species:S:1:pos:R:3:forces:R:3 energy=        0.5509762553 pbc="T T T"
       O    -0.0084803500    -0.0192352600     0.0000000000      0.613364614      5.059667918     -0.000000000
       H     0.9354275600     0.1832955900     0.0000000000      0.764210793     -1.654164788     -0.000000000
       H    -0.0795195500     1.0509284900     0.0000000000     -1.377575407     -3.405503129     -0.000000000
       3
Lattice="15.0 0.0 0.0 0.0 15.0 0.0 0.0 0.0 15.0" Properties=species:S:1:pos:R:3:forces:R:3 energy=        1.7060668366 pbc="T T T"
       O    -0.0204588400     0.0004882000     0.0000000000      7.423271468    -12.780418528     -0.000000000
       H     1.1321721400     0.1159933000     0.0000000000     -4.900896309     -1.441483343     -0.000000000
       H    -0.0861589200     0.8052059000     0.0000000000     -2.522375159     14.221901871     -0.000000000
       3
Lattice="15.0 0.0 0.0 0.0 15.0 0.0 0.0 0.0 15.0" Properties=species:S:1:pos:R:3:forces:R:3 energy=        1.2009866138 pbc="T T T"
       O    -0.0242431100    -0.0105170300     0.0000000000      6.218813096     -2.544134107     -0.000000000
       H     1.1134909300     0.2118142900     0.0000000000     -4.101712326     -2.541360451     -0.000000000
       H    -0.0074160400     0.8840455800     0.0000000000     -2.117100770      5.085494558     -0.000000000
       3
Lattice="15.0 0.0 0.0 0.0 15.0 0.0 0.0 0.0 15.0" Properties=species:S:1:pos:R:3:forces:R:3 energy=        6.4752444416 pbc="T T T"
       O     0.0124174300    -0.0149846500     0.0000000000    -53.437411360     -7.294364985     -0.000000000
       H     0.6413137400     0.1407440700     0.0000000000     55.261669410     10.088954535     -0.000000000
       H    -0.1170699000     1.0260187600     0.0000000000     -1.824258049     -2.794589550     -0.000000000
       3
Lattice="15.0 0.0 0.0 0.0 15.0 0.0 0.0 0.0 15.0" Properties=species:S:1:pos:R:3:forces:R:3 energy=        2.0670286638 pbc="T T T"
       O    -0.0035231900     0.0226250100     0.0000000000     11.387961209    -17.308697432     -0.000000000
       H     1.1321570300    -0.1624624600     0.0000000000     -5.783230682      2.135110071     -0.000000000
       H    -0.3549323100     0.7323358900     0.0000000000     -5.604730527     15.173587362     -0.000000000
       3
Lattice="15.0 0.0 0.0 0.0 15.0 0.0 0.0 0.0 15.0" Properties=species:S:1:pos:R:3:forces:R:3 energy=        2.4376357001 pbc="T T T"
       O     0.0173533000     0.0062861400     0.0000000000    -28.252650204      1.916049612     -0.000000000
       H     0.7454465600    -0.0679709900     0.0000000000     27.895913226     -2.259213165     -0.000000000
       H    -0.2995442200     0.8971523500     0.0000000000      0.356736978      0.343163553     -0.000000000
       3
Lattice="15.0 0.0 0.0 0.0 15.0 0.0 0.0 0.0 15.0" Properties=species:S:1:pos:R:3:forces:R:3 energy=        0.8941257868 pbc="T T T"
       O    -0.0008026500    -0.0110436200     0.0000000000     -8.607267501      0.257455068     -0.000000000
       H     0.8223793900     0.1506484400     0.0000000000     10.779852755     -0.412008112     -0.000000000
       H    -0.0883230800     0.9535679300     0.0000000000     -2.172585254      0.154553043     -0.000000000
       3
Lattice="15.0 0.0 0.0 0.0 15.0 0.0 0.0 0.0 15.0" Properties=species:S:1:pos:R:3:forces:R:3 energy=        0.5701049671 pbc="T T T"
       O    -0.0111009100    -0.0102014200     0.0000000000      1.498274153     -1.530482327     -0.000000000
       H     0.9323464100     0.1895183900     0.0000000000      1.235067525     -2.283427929     -0.000000000
       H    -0.0348482800     0.9013318100     0.0000000000     -2.733341678      3.813910307     -0.000000000
       3
Lattice="15.0 0.0 0.0 0.0 15.0 0.0 0.0 0.0 15.0" Properties=species:S:1:pos:R:3:forces:R:3 energy=        0.4553139747 pbc="T T T"
       O     0.0074626000     0.0139434500     0.0000000000     -0.345618392     -7.452320577     -0.000000000
       H     0.9173723000    -0.1037104700     0.0000000000      2.119123355      0.597304107     -0.000000000
       H    -0.3144983900     0.8113654400     0.0000000000     -1.773505015      6.855016418     -0.000000000
       3
Lattice="15.0 0.0 0.0 0.0 15.0 0.0 0.0 0.0 15.0" Properties=species:S:1:pos:R:3:forces:R:3 energy=        1.8997217536 pbc="T T T"
       O     0.0014917500    -0.0044454100     0.0000000000    -14.496652398     -7.087959349     -0.000000000
       H     0.7768096100     0.1369674300     0.0000000000     17.968639042      0.119837015     -0.000000000
       H    -0.0791675500     0.8625303900     0.0000000000     -3.471986644      6.968122334     -0.000000000
       3
Lattice="15.0 0.0 0.0 0.0 15.0 0.0 0.0 0.0 15.0" Properties=species:S:1:pos:R:3:forces:R:3 energy=        1.6806023291 pbc="T T T"
       O    -0.0281880000    -0.0172906600     0.0000000000      6.119085819      4.425811911     -0.000000000
       H     1.2502322100     0.1755919600     0.0000000000     -5.453618495     -1.489381732     -0.000000000
       H    -0.0815497400     1.0277710800     0.0000000000     -0.665467324     -2.936430179     -0.000000000
       3
Lattice="15.0 0.0 0.0 0.0 15.0 0.0 0.0 0.0 15.0" Properties=species:S:1:pos:R:3:forces:R:3 energy=        1.7261346542 pbc="T T T"
       O    -0.0094024500     0.0031783600     0.0000000000      3.627248541      1.661132070     -0.000000000
       H     1.2528408100    -0.1224442300     0.0000000000     -6.033765366      1.553187029     -0.000000000
       H    -0.3823066500     1.0009506300     0.0000000000      2.406516774     -3.214319099     -0.000000000
       3
Lattice="15.0 0.0 0.0 0.0 15.0 0.0 0.0 0.0 15.0" Properties=species:S:1:pos:R:3:forces:R:3 energy=        1.0438011365 pbc="T T T"
       O     0.0032716400     0.0006407200     0.0000000000      1.304325980      2.828353858     -0.000000000
       H     1.0780075700    -0.1348814800     0.0000000000     -4.264505450      1.701897135     -0.000000000
       H    -0.4086206800     1.0536614900     0.0000000000      2.960179470     -4.530251045     -0.000000000
       3
Lattice="15.0 0.0 0.0 0.0 15.0 0.0 0.0 0.0 15.0" Properties=species:S:1:pos:R:3:forces:R:3 energy=        1.9268317500 pbc="T T T"
       O    -0.0038268100    -0.0355555000     0.0000000000     -4.167053087      5.607018912     -0.000000000
       H     0.8457654800     0.2469948100     0.0000000000      5.420497169     -0.451765150     -0.000000000
       H    -0.0637107300     1.2462428300     0.0000000000     -1.253444082     -5.155253762     -0.000000000
       3
Lattice="15.0 0.0 0.0 0.0 15.0 0.0 0.0 0.0 15.0" Properties=species:S:1:pos:R:3:forces:R:3 energy=        0.8583800502 pbc="T T T"
       O    -0.0177434500    -0.0157098600     0.0000000000      3.783663681      0.767115935     -0.000000000
       H     0.9772343700     0.2538815100     0.0000000000     -0.792173713     -3.144932500     -0.000000000
       H     0.0256874500     0.9243916200     0.0000000000     -2.991489968      2.377816564     -0.000000000
       3
Lattice="15.0 0.0 0.0 0.0 15.0 0.0 0.0 0.0 15.0" Properties=species:S:1:pos:R:3:forces:R:3 energy=        2.1302812204 pbc="T T T"
       O    -0.0121162200    -0.0393961500     0.0000000000      2.989937072      7.308900827     -0.000000000
       H     0.9954210000     0.2450442600     0.0000000000     -2.332329974     -1.911931115     -0.000000000
       H    -0.0818073000     1.3091479800     0.0000000000     -0.657607149     -5.396969712     -0.000000000
       3
Lattice="15.0 0.0 0.0 0.0 15.0 0.0 0.0 0.0 15.0" Properties=species:S:1:pos:R:3:forces:R:3 energy=        1.2697820426 pbc="T T T"
       O     0.0119960000     0.0027772000     0.0000000000     -1.424222748      2.889188553     -0.000000000
       H     1.0080399000    -0.1948008900     0.0000000000     -2.270591330      2.029693763     -0.000000000
       H    -0.4771164700     1.0796735000     0.0000000000      3.694814078     -4.918882315     -0.000000000
       3
Lattice="15.0 0.0 0.0 0.0 15.0 0.0 0.0 0.0 15.0" Properties=species:S:1:pos:R:3:forces:R:3 energy=        3.2827355953 pbc="T T T"
       O    -0.0274173200    -0.0025609200     0.0000000000      5.015305106    -21.633399018     -0.000000000
       H     1.1175993400     0.2226733800     0.0000000000     -3.683660884     -3.023296534     -0.000000000
       H     0.0388527200     0.7469169800     0.0000000000     -1.331644221     24.656695552     -0.000000000
       3
Lattice="15.0 0.0 0.0 0.0 15.0 0.0 0.0 0.0 15.0" Properties=species:S:1:pos:R:3:forces:R:3 energy=        1.6720958594 pbc="T T T"
       O    -0.0284160800    -0.0098531600     0.0000000000      6.199070562      1.325803701     -0.000000000
       H     1.2884434600     0.1252954000     0.0000000000     -5.698521792     -0.976749542     -0.000000000
       H    -0.1161426800     0.9600294800     0.0000000000     -0.500548770     -0.349054210     -0.000000000
       3
Lattice="15.0 0.0 0.0 0.0 15.0 0.0 0.0 0.0 15.0" Properties=species:S:1:pos:R:3:forces:R:3 energy=        2.1700921203 pbc="T T T"
       O    -0.0044315500     0.0170802300     0.0000000000      3.257809021     -1.514679496     -0.000000000
       H     1.2769537600    -0.2462343300     0.0000000000     -5.910879278      2.631921844     -0.000000000
       H    -0.4853146800     0.9041085200     0.0000000000      2.653070257     -1.117242347     -0.000000000
       3
Lattice="15.0 0.0 0.0 0.0 15.0 0.0 0.0 0.0 15.0" Properties=species:S:1:pos:R:3:forces:R:3 energy=        1.1543007573 pbc="T T T"
       O     0.0139484300     0.0128036600     0.0000000000    -12.255697314     -4.231034608     -0.000000000
       H     0.8127791000    -0.0988312300     0.0000000000     13.548399126     -1.047601517     -0.000000000
       H    -0.3128398200     0.8245751000     0.0000000000     -1.292701812      5.278636073     -0.000000000
       3
Lattice="15.0 0.0 0.0 0.0 15.0 0.0 0.0 0.0 15.0" Properties=species:S:1:pos:R:3:forces:R:3 energy=        2.3670916840 pbc="T T T"
       O    -0.0228227100     0.0052250900     0.0000000000      8.814237701    -15.959469223     -0.000000000
       H     1.2247581900     0.0583046100     0.0000000000     -5.918461568     -0.505386766     -0.000000000
       H    -0.1412301100     0.7877174000     0.0000000000     -2.895776134     16.464855989     -0.000000000
       3
Lattice="15.0 0.0 0.0 0.0 15.0 0.0 0.0 0.0 15.0" Properties=species:S:1:pos:R:3:forces:R:3 energy=        1.5652533264 pbc="T T T"