       3
Lattice="15.0 0.0 0.0 0.0 15.0 0.0 0.0 0.0 15.0" Properties=species:S:1:pos:R:3:forces:R:3 energy=        3.2610752368 pbc="T T T"
       O    -0.0213444700     0.0074582700     0.0000000000      9.895405706    -26.130831304     -0.000000000
       H     1.1749463100     0.0717301900     0.0000000000     -5.585261764     -0.827438415     -0.000000000
       H    -0.1148786500     0.7388494100     0.0000000000     -4.310143941     26.958269667     -0.000000000
