       3
Lattice="15.0 0.0 0.0 0.0 15.0 0.0 0.0 0.0 15.0" Properties=species:S:1:pos:R:3:forces:R:3 energy=        1.6980034009 pbc="T T T"
       O    -0.0044524500    -0.0115637300     0.0000000000      2.930280149      4.615158218     -0.000000000
       H     1.1413982700    -0.0504582200     0.0000000000     -5.199987173      0.855851895     -0.000000000
       H    -0.3494221600     1.1629316900     0.0000000000      2.269706973     -5.471010114     -0.000000000
