       3
Lattice="15.0 0.0 0.0 0.0 15.0 0.0 0.0 0.0 15.0" Properties=species:S:1:pos:R:3:forces:R:3 energy=       29.7882558179 pbc="T T T"
       O    -0.0124656800     0.0305466000     0.0000000000     71.592157427   -222.914503823     -0.000000000
       H     1.0632519800    -0.0237097300     0.0000000000     -4.851828942      0.347860138     -0.000000000
       H    -0.1441000900     0.4678604800     0.0000000000    -66.740328485    222.566643737     -0.000000000
