       3
Lattice="15.0 0.0 0.0 0.0 15.0 0.0 0.0 0.0 15.0" Properties=species:S:1:pos:R:3:forces:R:3 energy=        1.0481927440 pbc="T T T"
       O     0.0034241600    -0.0130631900     0.0000000000    -11.717260595      2.889139805     -0.000000000
       H     0.8157965400     0.1100326100     0.0000000000     12.495322596      0.300239171     -0.000000000
       H    -0.1488238000     1.0262360900     0.0000000000     -0.778062001     -3.189378975     -0.000000000
