       3
Lattice="15.0 0.0 0.0 0.0 15.0 0.0 0.0 0.0 15.0" Properties=species:S:1:pos:R:3:forces:R:3 energy=        3.9629200475 pbc="T T T"
       O     0.0358284100     0.0053702500     0.0000000000    -25.010092974     11.156168796     -0.000000000
       H     0.7410528000    -0.2893602900     0.0000000000     20.346027054     -5.792399857     -0.000000000
       H    -0.5883694700     1.1330788200     0.0000000000      4.664065920     -5.363768990     -0.000000000
