       3
Lattice="15.0 0.0 0.0 0.0 15.0 0.0 0.0 0.0 15.0" Properties=species:S:1:pos:R:3:forces:R:3 energy=        3.1248419090 pbc="T T T"
       O     0.0267241700     0.0052957300     0.0000000000    -29.938364243      9.523705980     -0.000000000
       H     0.7410179900    -0.1768978400     0.0000000000     26.347909183     -4.753507699     -0.000000000
       H    -0.4438408600     1.0217983300     0.0000000000      3.590455111     -4.770198281     -0.000000000
