       3
Lattice="15.0 0.0 0.0 0.0 15.0 0.0 0.0 0.0 15.0" Properties=species:S:1:pos:R:3:forces:R:3 energy=        2.4992008704 pbc="T T T"
       O     0.0001888100    -0.0405326100     0.0000000000     -5.102267003      5.094864691     -0.000000000
       H     0.8557017600     0.2054734200     0.0000000000      5.390662228      0.220921012     -0.000000000
       H    -0.1373787500     1.3667550100     0.0000000000     -0.288395173     -5.315785652     -0.000000000
