       3
Lattice="15.0 0.0 0.0 0.0 15.0 0.0 0.0 0.0 15.0" Properties=species:S:1:pos:R:3:forces:R:3 energy=        1.5833807110 pbc="T T T"
       O    -0.0087794300     0.0119883900     0.0000000000      4.850198090     -2.530970670     -0.000000000
       H     1.2468050300    -0.1531955900     0.0000000000     -6.135814144      1.898313980     -0.000000000
       H    -0.3861594900     0.8918804100     0.0000000000      1.285616054      0.632656690     -0.000000000
