       3
Lattice="15.0 0.0 0.0 0.0 15.0 0.0 0.0 0.0 15.0" Properties=species:S:1:pos:R:3:forces:R:3 energy=       16.7362336780 pbc="T T T"
       O    -0.0134190200     0.0293172000     0.0000000000     51.277801031   -124.445263309     -0.000000000
       H     1.1358232600    -0.0644402300     0.0000000000     -6.074584116      1.072145845     -0.000000000
       H    -0.2015421500     0.5281029200     0.0000000000    -45.203216914    123.373117464     -0.000000000
