       3
Lattice="15.0 0.0 0.0 0.0 15.0 0.0 0.0 0.0 15.0" Properties=species:S:1:pos:R:3:forces:R:3 energy=        1.2358574826 pbc="T T T"
       O     0.0223344500     0.0112899300     0.0000000000     -7.786274588      3.486193127     -0.000000000
       H     0.8850046900    -0.2534956300     0.0000000000      3.637381160      0.903811888     -0.000000000
       H    -0.5181616200     1.0032648200     0.0000000000      4.148893428     -4.390005014     -0.000000000
