       3
Lattice="15.0 0.0 0.0 0.0 15.0 0.0 0.0 0.0 15.0" Properties=species:S:1:pos:R:3:forces:R:3 energy=       29.1578276734 pbc="T T T"
       O     0.0336474300     0.0025668800     0.0000000000   -229.025662002     31.552577926     -0.000000000
       H     0.4879875300    -0.0571375000     0.0000000000    227.639679032    -28.951762897     -0.000000000
       H    -0.3006845600     0.9453451800     0.0000000000      1.385983021     -2.600814977     -0.000000000
