       3
Lattice="15.0 0.0 0.0 0.0 15.0 0.0 0.0 0.0 15.0" Properties=species:S:1:pos:R:3:forces:R:3 energy=        2.5238266659 pbc="T T T"
       O     0.0321038600     0.0180497300     0.0000000000    -23.047649378      9.383710735     -0.000000000
       H     0.7393190200    -0.2820654900     0.0000000000     19.058706153     -5.805938213     -0.000000000
       H    -0.5275244300     0.9245512300     0.0000000000      3.988943225     -3.577772522     -0.000000000
