       3
Lattice="15.0 0.0 0.0 0.0 15.0 0.0 0.0 0.0 15.0" Properties=species:S:1:pos:R:3:forces:R:3 energy=        2.0286700737 pbc="T T T"
       O    -0.0008784000     0.0221681300     0.0000000000     11.824939064    -20.479635419     -0.000000000
       H     1.0644426400    -0.1410353900     0.0000000000     -4.693839412      1.812965862     -0.000000000
       H    -0.3291920500     0.7181593700     0.0000000000     -7.131099600     18.666669557     -0.000000000
