       3
Lattice="15.0 0.0 0.0 0.0 15.0 0.0 0.0 0.0 15.0" Properties=species:S:1:pos:R:3:forces:R:3 energy=        6.6029097720 pbc="T T T"
       O    -0.0269879200     0.0118393500     0.0000000000     12.165094115    -49.369324092     -0.000000000
       H     1.2467354100     0.0717293100     0.0000000000     -5.932917705     -0.737705124     -0.000000000
       H    -0.0971022700     0.6693194200     0.0000000000     -6.232176462     50.107029216     -0.000000000
