       3
Lattice="15.0 0.0 0.0 0.0 15.0 0.0 0.0 0.0 15.0" Properties=species:S:1:pos:R:3:forces:R:3 energy=        4.1478240468 pbc="T T T"
       O     0.0000505200     0.0117183300     0.0000000000      0.095201722    -36.308973850     -0.000000000
       H     0.8486320300     0.0480257400     0.0000000000      8.810485174     -1.137431224     -0.000000000
       H    -0.1281190700     0.6949423700     0.0000000000     -8.905686896     37.446405023     -0.000000000
