       3
Lattice="15.0 0.0 0.0 0.0 15.0 0.0 0.0 0.0 15.0" Properties=species:S:1:pos:R:3:forces:R:3 energy=       17.3454797096 pbc="T T T"
       O     0.0172323900    -0.0243996200     0.0000000000   -113.198559809    -50.548247953     -0.000000000
       H     0.4915549000     0.2273622200     0.0000000000    116.777295364     53.238367927     -0.000000000
       H    -0.0437255600     1.0888221300     0.0000000000     -3.578735555     -2.690120025     -0.000000000
