       3
Lattice="15.0 0.0 0.0 0.0 15.0 0.0 0.0 0.0 15.0" Properties=species:S:1:pos:R:3:forces:R:3 energy=        0.6230910405 pbc="T T T"
       O     0.0088404900     0.0172096000     0.0000000000      1.615715311     -2.226923694     -0.000000000
       H     1.0289565800    -0.2176309800     0.0000000000     -3.572020087      2.390916958     -0.000000000
       H    -0.4479537700     0.8734508200     0.0000000000      1.956304776     -0.163993265     -0.000000000
