       3
Lattice="15.0 0.0 0.0 0.0 15.0 0.0 0.0 0.0 15.0" Properties=species:S:1:pos:R:3:forces:R:3 energy=       10.5298977040 pbc="T T T"
       O    -0.0062197900     0.0152928600     0.0000000000      7.120358143    -85.156946674     -0.000000000
       H     0.8843223300     0.0863233200     0.0000000000      5.099922671     -1.936034035     -0.000000000
       H    -0.0642941200     0.5999141400     0.0000000000    -12.220280814     87.092980710     -0.000000000
