       3
Lattice="15.0 0.0 0.0 0.0 15.0 0.0 0.0 0.0 15.0" Properties=species:S:1:pos:R:3:forces:R:3 energy=        1.6594300204 pbc="T T T"
       O     0.0138326500     0.0003427600     0.0000000000    -21.796028363      2.602394818     -0.000000000
       H     0.7778293400    -0.0310010100     0.0000000000     21.055039271     -0.671147665     -0.000000000
       H    -0.2760506500     0.9545080100     0.0000000000      0.740989041     -1.931247153     -0.000000000
