       3
Lattice="15.0 0.0 0.0 0.0 15.0 0.0 0.0 0.0 15.0" Properties=species:S:1:pos:R:3:forces:R:3 energy=        2.3519214478 pbc="T T T"
       O     0.0178575800    -0.0119530000     0.0000000000     -6.031109981      4.272055961     -0.000000000
       H     0.9243319800    -0.1556232300     0.0000000000      2.847801074      1.085189675     -0.000000000
       H    -0.4864348900     1.2742745400     0.0000000000      3.183308855     -5.357245636     -0.000000000
