       3
Lattice="15.0 0.0 0.0 0.0 15.0 0.0 0.0 0.0 15.0" Properties=species:S:1:pos:R:3:forces:R:3 energy=        0.5825443992 pbc="T T T"
       O    -0.0053552700    -0.0010748000     0.0000000000      3.441086751      1.996690296     -0.000000000
       H     1.1037699400    -0.0431629800     0.0000000000     -4.856840950      0.730144534     -0.000000000
       H    -0.2974653200     0.9891690800     0.0000000000      1.415754250     -2.726834830     -0.000000000
