       3
Lattice="15.0 0.0 0.0 0.0 15.0 0.0 0.0 0.0 15.0" Properties=species:S:1:pos:R:3:forces:R:3 energy=        0.8908113474 pbc="T T T"
       O    -0.0006895900    -0.0183644800     0.0000000000     -0.854635866      5.787080397     -0.000000000
       H     0.9613127700     0.0644380300     0.0000000000     -0.026017828     -0.243229045     -0.000000000
       H    -0.2290528300     1.1559669600     0.0000000000      0.880653694     -5.543851403     -0.000000000
