       3
Lattice="15.0 0.0 0.0 0.0 15.0 0.0 0.0 0.0 15.0" Properties=species:S:1:pos:R:3:forces:R:3 energy=        1.0497051556 pbc="T T T"
       O    -0.0214316300    -0.0217788600     0.0000000000      5.445060831      5.260546554     -0.000000000
       H     1.0702869000     0.2462003900     0.0000000000     -3.550864115     -2.663752938     -0.000000000
       H    -0.0088311600     1.0283926200     0.0000000000     -1.894196716     -2.596793616     -0.000000000
