       3
Lattice="15.0 0.0 0.0 0.0 15.0 0.0 0.0 0.0 15.0" Properties=species:S:1:pos:R:3:forces:R:3 energy=        2.0441178143 pbc="T T T"
       O     0.0002132300    -0.0288534100     0.0000000000      0.379263761      5.724897209     -0.000000000
       H     0.9989411000     0.0571427900     0.0000000000     -1.626904191     -0.042858510     -0.000000000
       H    -0.2810096800     1.3297295600     0.0000000000      1.247640431     -5.682038699     -0.000000000
