       3
Lattice="15.0 0.0 0.0 0.0 15.0 0.0 0.0 0.0 15.0" Properties=species:S:1:pos:R:3:forces:R:3 energy=        7.9945870931 pbc="T T T"
       O    -0.0055440800     0.0394578100     0.0000000000     38.922886907    -49.724032366     -0.000000000
       H     1.2068998100    -0.2486364000     0.0000000000     -6.611606830      3.028554648     -0.000000000
       H    -0.3976045400     0.5513615000     0.0000000000    -32.311280077     46.695477718     -0.000000000
