       3
Lattice="15.0 0.0 0.0 0.0 15.0 0.0 0.0 0.0 15.0" Properties=species:S:1:pos:R:3:forces:R:3 energy=        5.2824616225 pbc="T T T"
       O     0.0066595200     0.0144062300     0.0000000000     -9.341644331    -36.528990759     -0.000000000
       H     0.7758913100     0.0145918100     0.0000000000     20.142710908     -1.227793048     -0.000000000
       H    -0.1602688600     0.6857171800     0.0000000000    -10.801066577     37.756783755     -0.000000000
