       3
Lattice="15.0 0.0 0.0 0.0 15.0 0.0 0.0 0.0 15.0" Properties=species:S:1:pos:R:3:forces:R:3 energy=        2.0126407904 pbc="T T T"
       O     0.0033614300    -0.0306211200     0.0000000000     -7.477931862      5.233671366     -0.000000000
       H     0.8543764700     0.1361721800     0.0000000000      7.247228826      0.497393614     -0.000000000
       H    -0.1864072400     1.2787538700     0.0000000000      0.230703087     -5.731065031     -0.000000000
