       3
Lattice="15.0 0.0 0.0 0.0 15.0 0.0 0.0 0.0 15.0" Properties=species:S:1:pos:R:3:forces:R:3 energy=        2.3223855591 pbc="T T T"
       O    -0.0192872900    -0.0364942800     0.0000000000      5.061133242      7.547705875     -0.000000000
       H     1.1084931600     0.2364735500     0.0000000000     -4.524944594     -2.019985273     -0.000000000
       H    -0.0810696800     1.2716644300     0.0000000000     -0.536188648     -5.527720603     -0.000000000
