       3
Lattice="15.0 0.0 0.0 0.0 15.0 0.0 0.0 0.0 15.0" Properties=species:S:1:pos:R:3:forces:R:3 energy=        2.2806771440 pbc="T T T"
       O    -0.0144228800     0.0163694800     0.0000000000      6.955974174     -7.555970433     -0.000000000
       H     1.3185941400    -0.1531964700     0.0000000000     -6.154973654      1.821361700     -0.000000000
       H    -0.3683831000     0.8223504200     0.0000000000     -0.801000520      5.734608682     -0.000000000
