       3
Lattice="15.0 0.0 0.0 0.0 15.0 0.0 0.0 0.0 15.0" Properties=species:S:1:pos:R:3:forces:R:3 energy=        4.2487766915 pbc="T T T"
       O     0.0066717300     0.0202458300     0.0000000000      4.985989785    -36.694201596     -0.000000000
       H     0.8475109800    -0.0595735100     0.0000000000      8.498182279     -0.593794858     -0.000000000
       H    -0.2320843200     0.6672044600     0.0000000000    -13.484172064     37.287996454     -0.000000000
