       3
Lattice="15.0 0.0 0.0 0.0 15.0 0.0 0.0 0.0 15.0" Properties=species:S:1:pos:R:3:forces:R:3 energy=       14.2818828561 pbc="T T T"
       O    -0.0134434400     0.0176380100     0.0000000000     14.162276572   -114.219659153     -0.000000000
       H     0.9925839200     0.0838904000     0.0000000000     -1.615999881     -1.805752937     -0.000000000
       H    -0.0579112200     0.5651283700     0.0000000000    -12.546276640    116.025412091     -0.000000000
