       3
Lattice="15.0 0.0 0.0 0.0 15.0 0.0 0.0 0.0 15.0" Properties=species:S:1:pos:R:3:forces:R:3 energy=        2.6734106780 pbc="T T T"
       O     0.0131430600    -0.0180217200     0.0000000000    -21.823421115      4.646294498     -0.000000000
       H     0.7803104700     0.0334370200     0.0000000000     20.562550501      1.208375399     -0.000000000
       H    -0.2675855200     1.1815275500     0.0000000000      1.260870614     -5.854669846     -0.000000000
