       3
Lattice="15.0 0.0 0.0 0.0 15.0 0.0 0.0 0.0 15.0" Properties=species:S:1:pos:R:3:forces:R:3 energy=        1.9968704970 pbc="T T T"
       O     0.0157637600     0.0144807500     0.0000000000    -17.300634758     -5.868151637     -0.000000000
       H     0.7759261200    -0.0978706400     0.0000000000     19.790866124     -2.119947805     -0.000000000
       H    -0.3047974700     0.7969976800     0.0000000000     -2.490231367      7.988099442     -0.000000000
