       3
Lattice="15.0 0.0 0.0 0.0 15.0 0.0 0.0 0.0 15.0" Properties=species:S:1:pos:R:3:forces:R:3 energy=        1.2956425493 pbc="T T T"
       O    -0.0123151700    -0.0158647400     0.0000000000      4.254256874      5.479880475     -0.000000000
       H     1.1419413800     0.0595726300     0.0000000000     -5.204873454     -0.349798030     -0.000000000
       H    -0.2251752300     1.1211604000     0.0000000000      0.950616632     -5.130082496     -0.000000000
