       3
Lattice="15.0 0.0 0.0 0.0 15.0 0.0 0.0 0.0 15.0" Properties=species:S:1:pos:R:3:forces:R:3 energy=        2.0799703201 pbc="T T T"
       O    -0.0314525800    -0.0055639800     0.0000000000      6.168583126     -1.263737807     -0.000000000
       H     1.3576823800     0.0954364000     0.0000000000     -5.705841880     -0.583195686     -0.000000000
       H    -0.1371910000     0.9218164100     0.0000000000     -0.462741246      1.846933493     -0.000000000
