       3
Lattice="15.0 0.0 0.0 0.0 15.0 0.0 0.0 0.0 15.0" Properties=species:S:1:pos:R:3:forces:R:3 energy=        5.4198537717 pbc="T T T"
       O     0.0119520600    -0.0020769000     0.0000000000    -46.749435480     -8.192358001     -0.000000000
       H     0.6695329400     0.0838943600     0.0000000000     49.602539251      3.692031783     -0.000000000
       H    -0.1379049400     0.8780133000     0.0000000000     -2.853103771      4.500326218     -0.000000000
