       3
Lattice="15.0 0.0 0.0 0.0 15.0 0.0 0.0 0.0 15.0" Properties=species:S:1:pos:R:3:forces:R:3 energy=        1.3701432017 pbc="T T T"
       O    -0.0276897200    -0.0123647200     0.0000000000      6.538479891     -0.359121009     -0.000000000
       H     1.1775968800     0.2103326500     0.0000000000     -4.813305828     -2.239937750     -0.000000000
       H    -0.0168216700     0.9148516800     0.0000000000     -1.725174063      2.599058707     -0.000000000
