       3
Lattice="15.0 0.0 0.0 0.0 15.0 0.0 0.0 0.0 15.0" Properties=species:S:1:pos:R:3:forces:R:3 energy=        5.7205748638 pbc="T T T"
       O     0.0276775100     0.0065251300     0.0000000000    -53.455717726     13.055503505     -0.000000000
       H     0.6684467100    -0.1361673400     0.0000000000     50.809053067     -9.601783169     -0.000000000
       H    -0.3863988000     0.9615558800     0.0000000000      2.646664710     -3.453720387     -0.000000000
