       3
Lattice="15.0 0.0 0.0 0.0 15.0 0.0 0.0 0.0 15.0" Properties=species:S:1:pos:R:3:forces:R:3 energy=        1.6365942933 pbc="T T T"
       O     0.0119503900     0.0095631700     0.0000000000     -0.044711762      1.595437628     -0.000000000
       H     1.0662112300    -0.2607926400     0.0000000000     -4.096917473      2.807987934     -0.000000000
       H    -0.5345657000     1.0379674600     0.0000000000      4.141629184     -4.403425613     -0.000000000
