       3
Lattice="15.0 0.0 0.0 0.0 15.0 0.0 0.0 0.0 15.0" Properties=species:S:1:pos:R:3:forces:R:3 energy=        3.3790882070 pbc="T T T"
       O     0.0000000000     0.0000000000     0.0000000000    -25.002945356      6.785423513     -0.000000000
       H     0.7368400000     0.0000000000     0.0000000000     27.761612052     -3.049347889     -0.000000000
       H     0.2253400000     1.1196600000     0.0000000000     -2.758666696     -3.736075675     -0.000000000
