       3
Lattice="15.0 0.0 0.0 0.0 15.0 0.0 0.0 0.0 15.0" Properties=species:S:1:pos:R:3:forces:R:3 energy=        3.1099068255 pbc="T T T"
       O     0.0000000000     0.0000000000     0.0000000000      2.797433140     -8.211670852     -0.000000000
       H     1.3631600000     0.0000000000     0.0000000000     -4.383567226     -1.989245457     -0.000000000
       H     0.3833300000     0.7557100000     0.0000000000      1.586134086     10.200916309     -0.000000000
