       3
Lattice="15.0 0.0 0.0 0.0 15.0 0.0 0.0 0.0 15.0" Properties=species:S:1:pos:R:3:forces:R:3 energy=        1.0623671958 pbc="T T T"
       O     0.0000000000     0.0000000000     0.0000000000     -0.353170342      3.761331788     -0.000000000
       H     1.0315800000     0.0000000000     0.0000000000     -3.032151006      1.071931826     -0.000000000
       H    -0.5142700000     1.0608700000     0.0000000000      3.385321400     -4.833263614     -0.000000000
