       3
Lattice="15.0 0.0 0.0 0.0 15.0 0.0 0.0 0.0 15.0" Properties=species:S:1:pos:R:3:forces:R:3 energy=        2.4062050309 pbc="T T T"
       O     0.0000000000     0.0000000000     0.0000000000      1.789884235      6.122880872     -0.000000000
       H     0.9578900000     0.0000000000     0.0000000000      0.830960622     -1.697026127     -0.000000000
       H     0.4230000000     1.3345700000     0.0000000000     -2.620844857     -4.425854797     -0.000000000
