       3
Lattice="15.0 0.0 0.0 0.0 15.0 0.0 0.0 0.0 15.0" Properties=species:S:1:pos:R:3:forces:R:3 energy=        4.2080279430 pbc="T T T"
       O     0.0000000000     0.0000000000     0.0000000000     32.283793171    -24.584491280     -0.000000000
       H     1.0315800000     0.0000000000     0.0000000000     -4.342123800      1.460919246     -0.000000000
       H    -0.5648200000     0.4134900000     0.0000000000    -27.941669371     23.123572033     -0.000000000
