       3
Lattice="15.0 0.0 0.0 0.0 15.0 0.0 0.0 0.0 15.0" Properties=species:S:1:pos:R:3:forces:R:3 energy=        1.3877230224 pbc="T T T"
       O     0.0000000000     0.0000000000     0.0000000000     -0.585866344      0.454684074     -0.000000000
       H     1.0684200000     0.0000000000     0.0000000000     -4.431839196      1.788112230     -0.000000000
       H    -0.8160100000     0.7454800000     0.0000000000      5.017705540     -2.242796355     -0.000000000
