       3
Lattice="15.0 0.0 0.0 0.0 15.0 0.0 0.0 0.0 15.0" Properties=species:S:1:pos:R:3:forces:R:3 energy=        2.8454322982 pbc="T T T"
       O     0.0000000000     0.0000000000     0.0000000000     -1.829504182      0.703470561     -0.000000000
       H     1.0684200000     0.0000000000     0.0000000000     -4.046157805      2.012344156     -0.000000000
       H    -1.0262100000     0.8402500000     0.0000000000      5.875662039     -2.715814717     -0.000000000
