       3
Lattice="15.0 0.0 0.0 0.0 15.0 0.0 0.0 0.0 15.0" Properties=species:S:1:pos:R:3:forces:R:3 energy=        1.4597063793 pbc="T T T"
       O     0.0000000000     0.0000000000     0.0000000000    -12.132393473     -3.316073486     -0.000000000
       H     0.8105300000     0.0000000000     0.0000000000     14.243582606     -2.905583457     -0.000000000
       H     0.0797100000     0.8806100000     0.0000000000     -2.111189184      6.221656943     -0.000000000
