       3
Lattice="15.0 0.0 0.0 0.0 15.0 0.0 0.0 0.0 15.0" Properties=species:S:1:pos:R:3:forces:R:3 energy=        4.2761134893 pbc="T T T"
       O     0.0000000000     0.0000000000     0.0000000000    -29.487467561      5.150663467     -0.000000000
       H     0.7368400000     0.0000000000     0.0000000000     27.340715838      0.715341041     -0.000000000
       H    -0.3883400000     1.3066700000     0.0000000000      2.146751723     -5.866004456     -0.000000000
