       3
Lattice="15.0 0.0 0.0 0.0 15.0 0.0 0.0 0.0 15.0" Properties=species:S:1:pos:R:3:forces:R:3 energy=        2.7752262121 pbc="T T T"
       O     0.0000000000     0.0000000000     0.0000000000    -16.833197852      6.551433063     -0.000000000
       H     0.7736800000     0.0000000000     0.0000000000     20.363048382     -3.691753795     -0.000000000
       H     0.3450800000     1.0887300000     0.0000000000     -3.529850582     -2.859679268     -0.000000000
