       3
Lattice="15.0 0.0 0.0 0.0 15.0 0.0 0.0 0.0 15.0" Properties=species:S:1:pos:R:3:forces:R:3 energy=        1.2496962683 pbc="T T T"
       O     0.0000000000     0.0000000000     0.0000000000      2.145410275      4.382615815     -0.000000000
       H     1.1052600000     0.0000000000     0.0000000000     -4.690145557      0.724053948     -0.000000000
       H    -0.3965500000     1.1102600000     0.0000000000      2.544735283     -5.106669814     -0.000000000
