       3
Lattice="15.0 0.0 0.0 0.0 15.0 0.0 0.0 0.0 15.0" Properties=species:S:1:pos:R:3:forces:R:3 energy=        6.5852853681 pbc="T T T"
       O     0.0000000000     0.0000000000     0.0000000000    -33.830680275      6.649742325     -0.000000000
       H     0.7000000000     0.0000000000     0.0000000000     37.669896728     -4.297511386     -0.000000000
       H     0.7000000000     1.2124400000     0.0000000000     -3.839216453     -2.352230888     -0.000000000
