       3
Lattice="15.0 0.0 0.0 0.0 15.0 0.0 0.0 0.0 15.0" Properties=species:S:1:pos:R:3:forces:R:3 energy=        2.3392856176 pbc="T T T"
       O     0.0000000000     0.0000000000     0.0000000000      5.776876558     -2.256045050     -0.000000000
       H     1.3263200000     0.0000000000     0.0000000000     -4.689785243     -1.837640802     -0.000000000
       H     0.3715800000     0.8427700000     0.0000000000     -1.087091315      4.093685852     -0.000000000
