       3
Lattice="15.0 0.0 0.0 0.0 15.0 0.0 0.0 0.0 15.0" Properties=species:S:1:pos:R:3:forces:R:3 energy=        2.7928068437 pbc="T T T"
       O     0.0000000000     0.0000000000     0.0000000000      5.123623419      5.705027714     -0.000000000
       H     1.2157900000     0.0000000000     0.0000000000     -5.576384718      0.041420132     -0.000000000
       H    -0.0983600000     1.3596100000     0.0000000000      0.452761299     -5.746447846     -0.000000000
