       3
Lattice="15.0 0.0 0.0 0.0 15.0 0.0 0.0 0.0 15.0" Properties=species:S:1:pos:R:3:forces:R:3 energy=        1.2758671589 pbc="T T T"
       O     0.0000000000     0.0000000000     0.0000000000      1.527952463      6.422387021     -0.000000000
       H     0.9578900000     0.0000000000     0.0000000000      0.784943099     -1.693729765     -0.000000000
       H     0.2398800000     1.1918900000     0.0000000000     -2.312895562     -4.728657256     -0.000000000
