       3
Lattice="15.0 0.0 0.0 0.0 15.0 0.0 0.0 0.0 15.0" Properties=species:S:1:pos:R:3:forces:R:3 energy=        2.1886351016 pbc="T T T"
       O     0.0000000000     0.0000000000     0.0000000000      5.795207349      6.084092317     -0.000000000
       H     1.1789500000     0.0000000000     0.0000000000     -5.241551287     -0.379939293     -0.000000000
       H     0.0465500000     1.2886300000     0.0000000000     -0.553656063     -5.704153025     -0.000000000
