       3
Lattice="15.0 0.0 0.0 0.0 15.0 0.0 0.0 0.0 15.0" Properties=species:S:1:pos:R:3:forces:R:3 energy=        1.4619655230 pbc="T T T"
       O     0.0000000000     0.0000000000     0.0000000000    -13.490626513      0.659695246     -0.000000000
       H     0.8473700000     0.0000000000     0.0000000000      8.305145305      2.000357462     -0.000000000
       H    -0.8160100000     0.7454800000     0.0000000000      5.185481208     -2.660052708     -0.000000000
