       3
Lattice="15.0 0.0 0.0 0.0 15.0 0.0 0.0 0.0 15.0" Properties=species:S:1:pos:R:3:forces:R:3 energy=        0.8158638569 pbc="T T T"
       O     0.0000000000     0.0000000000     0.0000000000      5.300141973     -0.689014938     -0.000000000
       H     1.1789500000     0.0000000000     0.0000000000     -5.734409215      0.404153748     -0.000000000
       H    -0.2728800000     0.9182000000     0.0000000000      0.434267242      0.284861138     -0.000000000
