       3
Lattice="15.0 0.0 0.0 0.0 15.0 0.0 0.0 0.0 15.0" Properties=species:S:1:pos:R:3:forces:R:3 energy=        2.4351700084 pbc="T T T"
       O     0.0000000000     0.0000000000     0.0000000000     18.343841486    -15.824638349     -0.000000000
       H     1.1052600000     0.0000000000     0.0000000000     -5.747895635      1.471010934     -0.000000000
       H    -0.5712000000     0.5218300000     0.0000000000    -12.595945903     14.353627415     -0.000000000
