       3
Lattice="15.0 0.0 0.0 0.0 15.0 0.0 0.0 0.0 15.0" Properties=species:S:1:pos:R:3:forces:R:3 energy=        1.3231931770 pbc="T T T"
       O     0.0000000000     0.0000000000     0.0000000000    -13.430185866      5.467043362     -0.000000000
       H     0.8105300000     0.0000000000     0.0000000000     13.800660357     -0.948466109     -0.000000000
       H    -0.0797500000     1.1023800000     0.0000000000     -0.370474492     -4.518577254     -0.000000000
