       3
Lattice="15.0 0.0 0.0 0.0 15.0 0.0 0.0 0.0 15.0" Properties=species:S:1:pos:R:3:forces:R:3 energy=        1.1074237407 pbc="T T T"
       O     0.0000000000     0.0000000000     0.0000000000      6.810664508    -13.035796658     -0.000000000
       H     1.0684200000     0.0000000000     0.0000000000     -3.958303734     -0.310526314     -0.000000000
       H    -0.1455500000     0.7973500000     0.0000000000     -2.852360774     13.346322972     -0.000000000
