       3
Lattice="15.0 0.0 0.0 0.0 15.0 0.0 0.0 0.0 15.0" Properties=species:S:1:pos:R:3:forces:R:3 energy=        1.1480354445 pbc="T T T"
       O     0.0000000000     0.0000000000     0.0000000000      3.134290390     -1.172149310     -0.000000000
       H     1.1421100000     0.0000000000     0.0000000000     -5.753446855      1.514553718     -0.000000000
       H    -0.6575600000     0.7464000000     0.0000000000      2.619156465     -0.342404408     -0.000000000
