       3
Lattice="15.0 0.0 0.0 0.0 15.0 0.0 0.0 0.0 15.0" Properties=species:S:1:pos:R:3:forces:R:3 energy=        2.9294072884 pbc="T T T"
       O     0.0000000000     0.0000000000     0.0000000000      8.071986402      5.373106881     -0.000000000
       H     1.1789500000     0.0000000000     0.0000000000     -4.504467084     -1.720314470     -0.000000000
       H     0.6000000000     1.1828500000     0.0000000000     -3.567519266     -3.652792411     -0.000000000
