       3
Lattice="15.0 0.0 0.0 0.0 15.0 0.0 0.0 0.0 15.0" Properties=species:S:1:pos:R:3:forces:R:3 energy=        3.4115265954 pbc="T T T"
       O     0.0000000000     0.0000000000     0.0000000000      2.763426222      4.273572141     -0.000000000
       H     1.3631600000     0.0000000000     0.0000000000     -5.822252590      0.808491587     -0.000000000
       H    -0.4988300000     1.1890800000     0.0000000000      3.058826368     -5.082063728     -0.000000000
