       3
Lattice="15.0 0.0 0.0 0.0 15.0 0.0 0.0 0.0 15.0" Properties=species:S:1:pos:R:3:forces:R:3 energy=        3.0670431836 pbc="T T T"
       O     0.0000000000     0.0000000000     0.0000000000      9.796471101    -13.812967720     -0.000000000
       H     1.4000000000     0.0000000000     0.0000000000     -6.089788496      0.559907806     -0.000000000
       H    -0.2726300000     0.7633000000     0.0000000000     -3.706682604     13.253059914     -0.000000000
