       3
Lattice="15.0 0.0 0.0 0.0 15.0 0.0 0.0 0.0 15.0" Properties=species:S:1:pos:R:3:forces:R:3 energy=        6.6835506137 pbc="T T T"
       O     0.0000000000     0.0000000000     0.0000000000    -39.563152729    -14.940589358     -0.000000000
       H     0.7000000000     0.0000000000     0.0000000000     38.591302580     -7.923600975     -0.000000000
       H     0.2733500000     0.7237800000     0.0000000000      0.971850200     22.864190333     -0.000000000
