       3
Lattice="15.0 0.0 0.0 0.0 15.0 0.0 0.0 0.0 15.0" Properties=species:S:1:pos:R:3:forces:R:3 energy=        1.8919125022 pbc="T T T"
       O     0.0000000000     0.0000000000     0.0000000000    -18.185785673      1.706157147     -0.000000000
       H     0.8105300000     0.0000000000     0.0000000000     13.152982248      1.932212089     -0.000000000
       H    -0.7549800000     0.8569800000     0.0000000000      5.032803425     -3.638369235     -0.000000000
