       3
Lattice="15.0 0.0 0.0 0.0 15.0 0.0 0.0 0.0 15.0" Properties=species:S:1:pos:R:3:forces:R:3 energy=        3.1639649595 pbc="T T T"
       O     0.0000000000     0.0000000000     0.0000000000      0.897709320      1.224369776     -0.000000000
       H     1.3263200000     0.0000000000     0.0000000000     -6.029219293      1.535444558     -0.000000000
       H    -0.8260800000     0.8411400000     0.0000000000      5.131509973     -2.759814334     -0.000000000
