       3
Lattice="15.0 0.0 0.0 0.0 15.0 0.0 0.0 0.0 15.0" Properties=species:S:1:pos:R:3:forces:R:3 energy=        0.8147862779 pbc="T T T"
       O     0.0000000000     0.0000000000     0.0000000000     -1.271322410     -0.986323512     -0.000000000
       H     0.9210500000     0.0000000000     0.0000000000      3.533045693     -3.249047109     -0.000000000
       H     0.2303400000     0.8917800000     0.0000000000     -2.261723283      4.235370672     -0.000000000
