       3
Lattice="15.0 0.0 0.0 0.0 15.0 0.0 0.0 0.0 15.0" Properties=species:S:1:pos:R:3:forces:R:3 energy=        3.4382945882 pbc="T T T"
       O     0.0000000000     0.0000000000     0.0000000000    -19.189709577      6.617378651     -0.000000000
       H     0.7736800000     0.0000000000     0.0000000000     19.926971803     -0.936835204     -0.000000000
       H     0.0492100000     1.3622700000     0.0000000000     -0.737262225     -5.680543499     -0.000000000
