       3
Lattice="15.0 0.0 0.0 0.0 15.0 0.0 0.0 0.0 15.0" Properties=species:S:1:pos:R:3:forces:R:3 energy=        0.8607055788 pbc="T T T"
       O     0.0000000000     0.0000000000     0.0000000000      7.625324740     -8.858553873     -0.000000000
       H     1.0315800000     0.0000000000     0.0000000000     -3.714074015      1.315797631     -0.000000000
       H    -0.5249000000     0.6652200000     0.0000000000     -3.911250724      7.542756242     -0.000000000
