       3
Lattice="15.0 0.0 0.0 0.0 15.0 0.0 0.0 0.0 15.0" Properties=species:S:1:pos:R:3:forces:R:3 energy=        0.9100959179 pbc="T T T"
       O     0.0000000000     0.0000000000     0.0000000000    -12.466042962     -1.380360479     -0.000000000
       H     0.8105300000     0.0000000000     0.0000000000     13.598624673     -0.817599621     -0.000000000
       H    -0.1653900000     0.9060800000     0.0000000000     -1.132581710      2.197960100     -0.000000000
