       3
Lattice="15.0 0.0 0.0 0.0 15.0 0.0 0.0 0.0 15.0" Properties=species:S:1:pos:R:3:forces:R:3 energy=        4.2066802964 pbc="T T T"
       O     0.0000000000     0.0000000000     0.0000000000      3.108243406      4.410736137     -0.000000000
       H     1.4000000000     0.0000000000     0.0000000000     -5.631303302      0.667840196     -0.000000000
       H    -0.4709000000     1.3184300000     0.0000000000      2.523059896     -5.078576334     -0.000000000
