       3
Lattice="15.0 0.0 0.0 0.0 15.0 0.0 0.0 0.0 15.0" Properties=species:S:1:pos:R:3:forces:R:3 energy=        2.1513673724 pbc="T T T"
       O     0.0000000000     0.0000000000     0.0000000000     13.226470838    -18.637453532     -0.000000000
       H     1.1421100000     0.0000000000     0.0000000000     -5.752735533      0.734411591     -0.000000000
       H    -0.3374800000     0.6961900000     0.0000000000     -7.473735305     17.903041942     -0.000000000
