       3
Lattice="15.0 0.0 0.0 0.0 15.0 0.0 0.0 0.0 15.0" Properties=species:S:1:pos:R:3:forces:R:3 energy=        1.7021297845 pbc="T T T"
       O     0.0000000000     0.0000000000     0.0000000000      0.154845789      6.361289610     -0.000000000
       H     0.9578900000     0.0000000000     0.0000000000      0.525105954     -0.655674399     -0.000000000
       H     0.0478800000     1.3254600000     0.0000000000     -0.679951743     -5.705615212     -0.000000000
