       3
Lattice="15.0 0.0 0.0 0.0 15.0 0.0 0.0 0.0 15.0" Properties=species:S:1:pos:R:3:forces:R:3 energy=        4.4284456418 pbc="T T T"
       O     0.0000000000     0.0000000000     0.0000000000    -28.245224701    -11.171080379     -0.000000000
       H     0.7000000000     0.0000000000     0.0000000000     35.930491962      1.498627937     -0.000000000
       H    -0.5679300000     0.5782800000     0.0000000000     -7.685267261      9.672452441     -0.000000000
