       3
Lattice="15.0 0.0 0.0 0.0 15.0 0.0 0.0 0.0 15.0" Properties=species:S:1:pos:R:3:forces:R:3 energy=        2.5936523804 pbc="T T T"
       O     0.0000000000     0.0000000000     0.0000000000    -24.716701529     -5.359882457     -0.000000000
       H     0.7368400000     0.0000000000     0.0000000000     26.423648005      1.362999765     -0.000000000
       H    -0.5477200000     0.6941400000     0.0000000000     -1.706946476      3.996882692     -0.000000000
