       3
Lattice="15.0 0.0 0.0 0.0 15.0 0.0 0.0 0.0 15.0" Properties=species:S:1:pos:R:3:forces:R:3 energy=        0.6329120025 pbc="T T T"
       O     0.0000000000     0.0000000000     0.0000000000      0.120521083      0.251106857     -0.000000000
       H     1.0315800000     0.0000000000     0.0000000000     -3.425547716      1.506084654     -0.000000000
       H    -0.6390100000     0.8098300000     0.0000000000      3.305026633     -1.757191512     -0.000000000
