       3
Lattice="15.0 0.0 0.0 0.0 15.0 0.0 0.0 0.0 15.0" Properties=species:S:1:pos:R:3:forces:R:3 energy=        4.6739824377 pbc="T T T"
       O     0.0000000000     0.0000000000     0.0000000000     23.006436734    -33.807580239     -0.000000000
       H     1.2157900000     0.0000000000     0.0000000000     -6.493714650      0.866816833     -0.000000000
       H    -0.3390000000     0.6124400000     0.0000000000    -16.512722085     32.940763355     -0.000000000
