       3
Lattice="15.0 0.0 0.0 0.0 15.0 0.0 0.0 0.0 15.0" Properties=species:S:1:pos:R:3:forces:R:3 energy=        2.8858519685 pbc="T T T"
       O     0.0000000000     0.0000000000     0.0000000000     10.487740588    -13.730693151     -0.000000000
       H     1.3631600000     0.0000000000     0.0000000000     -6.263150608      0.684504655     -0.000000000
       H    -0.3135500000     0.7474200000     0.0000000000     -4.224589980     13.046188548     -0.000000000
