       3
Lattice="15.0 0.0 0.0 0.0 15.0 0.0 0.0 0.0 15.0" Properties=species:S:1:pos:R:3:forces:R:3 energy=        2.5035402430 pbc="T T T"
       O     0.0000000000     0.0000000000     0.0000000000     15.655636676    -24.776952943     -0.000000000
       H     1.0315800000     0.0000000000     0.0000000000     -3.622291194      0.780650692     -0.000000000
       H    -0.3568400000     0.6446700000     0.0000000000    -12.033345482     23.996302200     -0.000000000
