       3
Lattice="15.0 0.0 0.0 0.0 15.0 0.0 0.0 0.0 15.0" Properties=species:S:1:pos:R:3:forces:R:3 energy=        0.4169089729 pbc="T T T"
       O     0.0000000000     0.0000000000     0.0000000000     -1.207131190     -1.103907880     -0.000000000
       H     0.9210500000     0.0000000000     0.0000000000      3.019361305     -2.093086244     -0.000000000
       H     0.0830400000     0.9173000000     0.0000000000     -1.812230115      3.196994124     -0.000000000
