       3
Lattice="15.0 0.0 0.0 0.0 15.0 0.0 0.0 0.0 15.0" Properties=species:S:1:pos:R:3:forces:R:3 energy=        1.8851155823 pbc="T T T"
       O     0.0000000000     0.0000000000     0.0000000000      9.448762144     -9.335741538     -0.000000000
       H     1.2526300000     0.0000000000     0.0000000000     -6.426865628      0.956563339     -0.000000000
       H    -0.4103700000     0.7413700000     0.0000000000     -3.021896465      8.379178199     -0.000000000
