       3
Lattice="15.0 0.0 0.0 0.0 15.0 0.0 0.0 0.0 15.0" Properties=species:S:1:pos:R:3:forces:R:3 energy=        2.6552307047 pbc="T T T"
       O     0.0000000000     0.0000000000     0.0000000000     -2.876010563    -17.238482475     -0.000000000
       H     0.9947400000     0.0000000000     0.0000000000      0.354815540     -4.002479421     -0.000000000
       H     0.2733500000     0.7237800000     0.0000000000      2.521195022     21.240961896     -0.000000000
