3
Lattice="15.0 0.0 0.0 0.0 15.0 0.0 0.0 0.0 15.0" Properties=species:S:1:pos:R:3 energy=0.9285151908 pbc="T T T"
O        0.00000000       0.00000000       0.00000000
H        0.87148370       0.00000000       0.00000000
H        0.04649089       0.85746526       0.00000000
3
Lattice="15.0 0.0 0.0 0.0 15.0 0.0 0.0 0.0 15.0" Properties=species:S:1:pos:R:3 energy=0.0129901606 pbc="T T T"
O        0.00000000       0.00000000       0.00000000
H        0.97405750       0.00000000       0.00000000
H       -0.27398716       0.92991549       0.00000000
3
Lattice="15.0 0.0 0.0 0.0 15.0 0.0 0.0 0.0 15.0" Properties=species:S:1:pos:R:3 energy=0.0098163769 pbc="T T T"
O        0.00000000       0.00000000       0.00000000
H        0.94834284       0.00000000       0.00000000
H       -0.19670128       0.93038371       0.00000000
3
Lattice="15.0 0.0 0.0 0.0 15.0 0.0 0.0 0.0 15.0" Properties=species:S:1:pos:R:3 energy=0.4013227699 pbc="T T T"
O        0.00000000       0.00000000       0.00000000
H        0.93292284       0.00000000       0.00000000
H       -0.29123463       0.80144885       0.00000000
3
Lattice="15.0 0.0 0.0 0.0 15.0 0.0 0.0 0.0 15.0" Properties=species:S:1:pos:R:3 energy=0.6589949215 pbc="T T T"
O        0.00000000       0.00000000       0.00000000
H        1.11395071       0.00000000       0.00000000
H        0.10843556       0.98280401       0.00000000
3
Lattice="15.0 0.0 0.0 0.0 15.0 0.0 0.0 0.0 15.0" Properties=species:S:1:pos:R:3 energy=1.5308926196 pbc="T T T"
O        0.00000000       0.00000000       0.00000000
H        1.25593646       0.00000000       0.00000000
H        0.14999106       1.03955896       0.00000000
3
Lattice="15.0 0.0 0.0 0.0 15.0 0.0 0.0 0.0 15.0" Properties=species:S:1:pos:R:3 energy=0.1302856889 pbc="T T T"
O        0.00000000       0.00000000       0.00000000
H        0.98566730       0.00000000       0.00000000
H       -0.14251279       0.89324731       0.00000000
3
Lattice="15.0 0.0 0.0 0.0 15.0 0.0 0.0 0.0 15.0" Properties=species:S:1:pos:R:3 energy=0.0146299595 pbc="T T T"
O        0.00000000       0.00000000       0.00000000
H        0.96096260       0.00000000       0.00000000
H       -0.23184224       0.95540445       0.00000000
3
Lattice="15.0 0.0 0.0 0.0 15.0 0.0 0.0 0.0 15.0" Properties=species:S:1:pos:R:3 energy=0.9628043944 pbc="T T T"
O        0.00000000       0.00000000       0.00000000
H        1.12739719       0.00000000       0.00000000
H       -0.48960678       0.95795479       0.00000000
3
Lattice="15.0 0.0 0.0 0.0 15.0 0.0 0.0 0.0 15.0" Properties=species:S:1:pos:R:3 energy=0.1703213222 pbc="T T T"
O        0.00000000       0.00000000       0.00000000
H        1.02530383       0.00000000       0.00000000
H       -0.21217171       0.99373921       0.00000000
3
Lattice="15.0 0.0 0.0 0.0 15.0 0.0 0.0 0.0 15.0" Properties=species:S:1:pos:R:3 energy=1.2719672639 pbc="T T T"
O        0.00000000       0.00000000       0.00000000
H        1.10063089       0.00000000       0.00000000
H       -0.01298372       1.19748511       0.00000000
3
Lattice="15.0 0.0 0.0 0.0 15.0 0.0 0.0 0.0 15.0" Properties=species:S:1:pos:R:3 energy=0.0294658249 pbc="T T T"
O        0.00000000       0.00000000       0.00000000
H        0.96784187       0.00000000       0.00000000
H       -0.31612497       0.88455285       0.00000000
3
Lattice="15.0 0.0 0.0 0.0 15.0 0.0 0.0 0.0 15.0" Properties=species:S:1:pos:R:3 energy=1.104693889 pbc="T T T"
O        0.00000000       0.00000000       0.00000000
H        1.13536906       0.00000000       0.00000000
H       -0.51177245       0.96733510       0.00000000
3
Lattice="15.0 0.0 0.0 0.0 15.0 0.0 0.0 0.0 15.0" Properties=species:S:1:pos:R:3 energy=0.40073151 pbc="T T T"
O        0.00000000       0.00000000       0.00000000
H        0.99561321       0.00000000       0.00000000
H       -0.57617229       0.84402300       0.00000000
3
Lattice="15.0 0.0 0.0 0.0 15.0 0.0 0.0 0.0 15.0" Properties=species:S:1:pos:R:3 energy=0.0652514424 pbc="T T T"
O        0.00000000       0.00000000       0.00000000
H        0.93698901       0.00000000       0.00000000
H       -0.38410490       0.86682302       0.00000000
3
Lattice="15.0 0.0 0.0 0.0 15.0 0.0 0.0 0.0 15.0" Properties=species:S:1:pos:R:3 energy=0.0113539944 pbc="T T T"
O        0.00000000       0.00000000       0.00000000
H        0.94203050       0.00000000       0.00000000
H       -0.27120858       0.92759849       0.00000000
3
Lattice="15.0 0.0 0.0 0.0 15.0 0.0 0.0 0.0 15.0" Properties=species:S:1:pos:R:3 energy=1.54651383 pbc="T T T"
O        0.00000000       0.00000000       0.00000000
H        1.04968479       0.00000000       0.00000000
H        0.10692493       1.26492972       0.00000000
3
Lattice="15.0 0.0 0.0 0.0 15.0 0.0 0.0 0.0 15.0" Properties=species:S:1:pos:R:3 energy=0.2675767478 pbc="T T T"
O        0.00000000       0.00000000       0.00000000
H        1.05701327       0.00000000       0.00000000
H       -0.06067040       0.93818391       0.00000000
3
Lattice="15.0 0.0 0.0 0.0 15.0 0.0 0.0 0.0 15.0" Properties=species:S:1:pos:R:3 energy=0.3057661729 pbc="T T T"
O        0.00000000       0.00000000       0.00000000
H        0.96983193       0.00000000       0.00000000
H        0.10667685       0.96348616       0.00000000
3
Lattice="15.0 0.0 0.0 0.0 15.0 0.0 0.0 0.0 15.0" Properties=species:S:1:pos:R:3 energy=0.2528474668 pbc="T T T"
O        0.00000000       0.00000000       0.00000000
H        0.95268611       0.00000000       0.00000000
H       -0.23889551       1.04276034       0.00000000
3
Lattice="15.0 0.0 0.0 0.0 15.0 0.0 0.0 0.0 15.0" Properties=species:S:1:pos:R:3 energy=0.012144594 pbc="T T T"
O        0.00000000       0.00000000       0.00000000
H        0.95412175       0.00000000       0.00000000
H       -0.18628790       0.95489150       0.00000000
3
Lattice="15.0 0.0 0.0 0.0 15.0 0.0 0.0 0.0 15.0" Properties=species:S:1:pos:R:3 energy=0.0457713173 pbc="T T T"
O        0.00000000       0.00000000       0.00000000
H        0.95042887       0.00000000       0.00000000
H       -0.28893570       0.95551643       0.00000000
3
Lattice="15.0 0.0 0.0 0.0 15.0 0.0 0.0 0.0 15.0" Properties=species:S:1:pos:R:3 energy=0.0064878448 pbc="T T T"
O        0.00000000       0.00000000       0.00000000
H        0.95936716       0.00000000       0.00000000
H       -0.18690651       0.93989729       0.00000000
3
Lattice="15.0 0.0 0.0 0.0 15.0 0.0 0.0 0.0 15.0" Properties=species:S:1:pos:R:3 energy=0.7698583612 pbc="T T T"
O        0.00000000       0.00000000       0.00000000
H        1.01626130       0.00000000       0.00000000
H       -0.32381142       0.75889457       0.00000000
3
Lattice="15.0 0.0 0.0 0.0 15.0 0.0 0.0 0.0 15.0" Properties=species:S:1:pos:R:3 energy=0.0258579461 pbc="T T T"
O        0.00000000       0.00000000       0.00000000
H        0.99020427       0.00000000       0.00000000
H       -0.20748995       0.93051829       0.00000000
3
Lattice="15.0 0.0 0.0 0.0 15.0 0.0 0.0 0.0 15.0" Properties=species:S:1:pos:R:3 energy=0.005331614 pbc="T T T"
O        0.00000000       0.00000000       0.00000000
H        0.96837925       0.00000000       0.00000000
H       -0.26880772       0.92091776       0.00000000
3
Lattice="15.0 0.0 0.0 0.0 15.0 0.0 0.0 0.0 15.0" Properties=species:S:1:pos:R:3 energy=0.0056427217 pbc="T T T"
O        0.00000000       0.00000000       0.00000000
H        0.94454886       0.00000000       0.00000000
H       -0.23964440       0.93012445       0.00000000
3
Lattice="15.0 0.0 0.0 0.0 15.0 0.0 0.0 0.0 15.0" Properties=species:S:1:pos:R:3 energy=1.5625762703 pbc="T T T"
O        0.00000000       0.00000000       0.00000000
H        0.95360438       0.00000000       0.00000000
H       -0.72024125       1.01456404       0.00000000
3
Lattice="15.0 0.0 0.0 0.0 15.0 0.0 0.0 0.0 15.0" Properties=species:S:1:pos:R:3 energy=0.0348975168 pbc="T T T"
O        0.00000000       0.00000000       0.00000000
H        0.92533737       0.00000000       0.00000000
H       -0.21543390       0.93717167       0.00000000
3
Lattice="15.0 0.0 0.0 0.0 15.0 0.0 0.0 0.0 15.0" Properties=species:S:1:pos:R:3 energy=0.1642399748 pbc="T T T"
O        0.00000000       0.00000000       0.00000000
H        0.89348918       0.00000000       0.00000000
H       -0.17517712       0.96813484       0.00000000
3
Lattice="15.0 0.0 0.0 0.0 15.0 0.0 0.0 0.0 15.0" Properties=species:S:1:pos:R:3 energy=0.6573722712 pbc="T T T"
O        0.00000000       0.00000000       0.00000000
H        0.98925717       0.00000000       0.00000000
H       -0.35099206       0.75350022       0.00000000
3
Lattice="15.0 0.0 0.0 0.0 15.0 0.0 0.0 0.0 15.0" Properties=species:S:1:pos:R:3 energy=0.5581874985 pbc="T T T"
O        0.00000000       0.00000000       0.00000000
H        0.87177901       0.00000000       0.00000000
H       -0.35470091       0.78667084       0.00000000
3
Lattice="15.0 0.0 0.0 0.0 15.0 0.0 0.0 0.0 15.0" Properties=species:S:1:pos:R:3 energy=0.0495660403 pbc="T T T"
O        0.00000000       0.00000000       0.00000000
H        0.97964258       0.00000000       0.00000000
H       -0.33077386       0.92556094       0.00000000
3
Lattice="15.0 0.0 0.0 0.0 15.0 0.0 0.0 0.0 15.0" Properties=species:S:1:pos:R:3 energy=1.8201646517 pbc="T T T"
O        0.00000000       0.00000000       0.00000000
H        1.00437296       0.00000000       0.00000000
H       -0.08193531       0.75728747       0.00000000
3
Lattice="15.0 0.0 0.0 0.0 15.0 0.0 0.0 0.0 15.0" Properties=species:S:1:pos:R:3 energy=0.0096227815 pbc="T T T"
O        0.00000000       0.00000000       0.00000000
H        0.94322897       0.00000000       0.00000000
H       -0.21206152       0.93033219       0.00000000
3
Lattice="15.0 0.0 0.0 0.0 15.0 0.0 0.0 0.0 15.0" Properties=species:S:1:pos:R:3 energy=0.2051800002 pbc="T T T"
O        0.00000000       0.00000000       0.00000000
H        1.01866002       0.00000000       0.00000000
H       -0.03840283       1.00882088       0.00000000
3
Lattice="15.0 0.0 0.0 0.0 15.0 0.0 0.0 0.0 15.0" Properties=species:S:1:pos:R:3 energy=0.1006620081 pbc="T T T"
O        0.00000000       0.00000000       0.00000000
H        0.95614725       0.00000000       0.00000000
H       -0.43838712       0.85400710       0.00000000
3
Lattice="15.0 0.0 0.0 0.0 15.0 0.0 0.0 0.0 15.0" Properties=species:S:1:pos:R:3 energy=0.0129876163 pbc="T T T"
O        0.00000000       0.00000000       0.00000000
H        0.95193022       0.00000000       0.00000000
H       -0.18528760       0.92882664       0.00000000
3
Lattice="15.0 0.0 0.0 0.0 15.0 0.0 0.0 0.0 15.0" Properties=species:S:1:pos:R:3 energy=0.5132069631 pbc="T T T"
O        0.00000000       0.00000000       0.00000000
H        0.86718153       0.00000000       0.00000000
H       -0.37517122       0.79190317       0.00000000
3
Lattice="15.0 0.0 0.0 0.0 15.0 0.0 0.0 0.0 15.0" Properties=species:S:1:pos:R:3 energy=0.365692845 pbc="T T T"
O        0.00000000       0.00000000       0.00000000
H        0.96601886       0.00000000       0.00000000
H       -0.61549266       0.75180862       0.00000000
3
Lattice="15.0 0.0 0.0 0.0 15.0 0.0 0.0 0.0 15.0" Properties=species:S:1:pos:R:3 energy=0.1388648974 pbc="T T T"
O        0.00000000       0.00000000       0.00000000
H        0.92070242       0.00000000       0.00000000
H       -0.40363265       0.82982017       0.00000000
3
Lattice="15.0 0.0 0.0 0.0 15.0 0.0 0.0 0.0 15.0" Properties=species:S:1:pos:R:3 energy=0.0806271871 pbc="T T T"
O        0.00000000       0.00000000       0.00000000
H        0.99989729       0.00000000       0.00000000
H       -0.17065451       0.98354906       0.00000000
3
Lattice="15.0 0.0 0.0 0.0 15.0 0.0 0.0 0.0 15.0" Properties=species:S:1:pos:R:3 energy=0.4601927341 pbc="T T T"
O        0.00000000       0.00000000       0.00000000
H        0.86436355       0.00000000       0.00000000
H       -0.17583405       0.87276112       0.00000000
3
Lattice="15.0 0.0 0.0 0.0 15.0 0.0 0.0 0.0 15.0" Properties=species:S:1:pos:R:3 energy=0.2233577993 pbc="T T T"
O        0.00000000       0.00000000       0.00000000
H        0.95256473       0.00000000       0.00000000
H       -0.00703417       1.02953479       0.00000000
3
Lattice="15.0 0.0 0.0 0.0 15.0 0.0 0.0 0.0 15.0" Properties=species:S:1:pos:R:3 energy=0.0290764136 pbc="T T T"
O        0.00000000       0.00000000       0.00000000
H        0.96700576       0.00000000       0.00000000
H       -0.16004073       0.92454822       0.00000000
3
Lattice="15.0 0.0 0.0 0.0 15.0 0.0 0.0 0.0 15.0" Properties=species:S:1:pos:R:3 energy=0.0383101131 pbc="T T T"
O        0.00000000       0.00000000       0.00000000
H        0.95385321       0.00000000       0.00000000
H       -0.35636525       0.87883250       0.00000000
3
Lattice="15.0 0.0 0.0 0.0 15.0 0.0 0.0 0.0 15.0" Properties=species:S:1:pos:R:3 energy=0.0271189898 pbc="T T T"
O        0.00000000       0.00000000       0.00000000
H        0.99075973       0.00000000       0.00000000
H       -0.20659278       0.92970337       0.00000000
3
Lattice="15.0 0.0 0.0 0.0 15.0 0.0 0.0 0.0 15.0" Properties=species:S:1:pos:R:3 energy=0.9896629331 pbc="T T T"
O        0.00000000       0.00000000       0.00000000
H        1.17193337       0.00000000       0.00000000
H        0.10317311       0.91588638       0.00000000
3
Lattice="15.0 0.0 0.0 0.0 15.0 0.0 0.0 0.0 15.0" Properties=species:S:1:pos:R:3 energy=0.1989213869 pbc="T T T"
O        0.00000000       0.00000000       0.00000000
H        0.92256167       0.00000000       0.00000000
H       -0.01054617       0.94609461       0.00000000
3
Lattice="15.0 0.0 0.0 0.0 15.0 0.0 0.0 0.0 15.0" Properties=species:S:1:pos:R:3 energy=0.1299540583 pbc="T T T"
O        0.00000000       0.00000000       0.00000000
H        1.00391633       0.00000000       0.00000000
H       -0.35084370       0.93856706       0.00000000
3
Lattice="15.0 0.0 0.0 0.0 15.0 0.0 0.0 0.0 15.0" Properties=species:S:1:pos:R:3 energy=0.0436637301 pbc="T T T"
O        0.00000000       0.00000000       0.00000000
H        0.99041199       0.00000000       0.00000000
H       -0.13899706       0.95435730       0.00000000
3
Lattice="15.0 0.0 0.0 0.0 15.0 0.0 0.0 0.0 15.0" Properties=species:S:1:pos:R:3 energy=0.2028386455 pbc="T T T"
O        0.00000000       0.00000000       0.00000000
H        0.98243782       0.00000000       0.00000000
H       -0.22032117       0.85391820       0.00000000
3
Lattice="15.0 0.0 0.0 0.0 15.0 0.0 0.0 0.0 15.0" Properties=species:S:1:pos:R:3 energy=0.1123408819 pbc="T T T"
O        0.00000000       0.00000000       0.00000000
H        0.95661710       0.00000000       0.00000000
H       -0.44330535       0.83559477       0.00000000
3
Lattice="15.0 0.0 0.0 0.0 15.0 0.0 0.0 0.0 15.0" Properties=species:S:1:pos:R:3 energy=0.4148028824 pbc="T T T"
O        0.00000000       0.00000000       0.00000000
H        0.93716230       0.00000000       0.00000000
H       -0.64291662       0.72860122       0.00000000
3
Lattice="15.0 0.0 0.0 0.0 15.0 0.0 0.0 0.0 15.0" Properties=species:S:1:pos:R:3 energy=1.3195341735 pbc="T T T"
O        0.00000000       0.00000000       0.00000000
H        1.19713585       0.00000000       0.00000000
H       -0.55230341       0.74570949       0.00000000
3
Lattice="15.0 0.0 0.0 0.0 15.0 0.0 0.0 0.0 15.0" Properties=species:S:1:pos:R:3 energy=0.0085716383 pbc="T T T"
O        0.00000000       0.00000000       0.00000000
H        0.95030098       0.00000000       0.00000000
H       -0.22580579       0.94782614       0.00000000
3
Lattice="15.0 0.0 0.0 0.0 15.0 0.0 0.0 0.0 15.0" Properties=species:S:1:pos:R:3 energy=0.0420271476 pbc="T T T"
O        0.00000000       0.00000000       0.00000000
H        0.97421543       0.00000000       0.00000000
H       -0.32110403       0.93109914       0.00000000
3
Lattice="15.0 0.0 0.0 0.0 15.0 0.0 0.0 0.0 15.0" Properties=species:S:1:pos:R:3 energy=1.2255288541 pbc="T T T"
O        0.00000000       0.00000000       0.00000000
H        0.98566686       0.00000000       0.00000000
H       -0.22209387       1.23251317       0.00000000
3
Lattice="15.0 0.0 0.0 0.0 15.0 0.0 0.0 0.0 15.0" Properties=species:S:1:pos:R:3 energy=0.144600742 pbc="T T T"
O        0.00000000       0.00000000       0.00000000
H        0.99281344       0.00000000       0.00000000
H       -0.05470170       0.92372274       0.00000000
3
Lattice="15.0 0.0 0.0 0.0 15.0 0.0 0.0 0.0 15.0" Properties=species:S:1:pos:R:3 energy=0.3622896612 pbc="T T T"
O        0.00000000       0.00000000       0.00000000
H        1.07840868       0.00000000       0.00000000
H       -0.36474592       0.87282388       0.00000000
3
Lattice="15.0 0.0 0.0 0.0 15.0 0.0 0.0 0.0 15.0" Properties=species:S:1:pos:R:3 energy=0.2399533433 pbc="T T T"
O        0.00000000       0.00000000       0.00000000
H        0.89494562       0.00000000       0.00000000
H       -0.14750338       0.89478242       0.00000000
3
Lattice="15.0 0.0 0.0 0.0 15.0 0.0 0.0 0.0 15.0" Properties=species:S:1:pos:R:3 energy=0.3334251128 pbc="T T T"
O        0.00000000       0.00000000       0.00000000
H        0.86542488       0.00000000       0.00000000
H       -0.13696443       0.94274800       0.00000000
3
Lattice="15.0 0.0 0.0 0.0 15.0 0.0 0.0 0.0 15.0" Properties=species:S:1:pos:R:3 energy=0.1502083964 pbc="T T T"
O        0.00000000       0.00000000       0.00000000
H        0.96388133       0.00000000       0.00000000
H       -0.37609283       0.95509367       0.00000000
3
Lattice="15.0 0.0 0.0 0.0 15.0 0.0 0.0 0.0 15.0" Properties=species:S:1:pos:R:3 energy=0.1706414506 pbc="T T T"
O        0.00000000       0.00000000       0.00000000
H        0.90321881       0.00000000       0.00000000
H       -0.34897909       0.84444722       0.00000000
3
Lattice="15.0 0.0 0.0 0.0 15.0 0.0 0.0 0.0 15.0" Properties=species:S:1:pos:R:3 energy=0.0157338221 pbc="T T T"
O        0.00000000       0.00000000       0.00000000
H        0.98401077       0.00000000       0.00000000
H       -0.23621253       0.92964647       0.00000000
3
Lattice="15.0 0.0 0.0 0.0 15.0 0.0 0.0 0.0 15.0" Properties=species:S:1:pos:R:3 energy=0.7544810165 pbc="T T T"
O        0.00000000       0.00000000       0.00000000
H        0.86138277       0.00000000       0.00000000
H        0.05286764       0.89807612       0.00000000
3
Lattice="15.0 0.0 0.0 0.0 15.0 0.0 0.0 0.0 15.0" Properties=species:S:1:pos:R:3 energy=0.6005256967 pbc="T T T"
O        0.00000000       0.00000000       0.00000000
H        0.85677741       0.00000000       0.00000000
H       -0.27899085       0.82278161       0.00000000
3
Lattice="15.0 0.0 0.0 0.0 15.0 0.0 0.0 0.0 15.0" Properties=species:S:1:pos:R:3 energy=0.1448381858 pbc="T T T"
O        0.00000000       0.00000000       0.00000000
H        0.96330829       0.00000000       0.00000000
H       -0.07026968       1.01919971       0.00000000
3
Lattice="15.0 0.0 0.0 0.0 15.0 0.0 0.0 0.0 15.0" Properties=species:S:1:pos:R:3 energy=0.185903087 pbc="T T T"
O        0.00000000       0.00000000       0.00000000
H        0.99651876       0.00000000       0.00000000
H       -0.09024492       0.89826390       0.00000000
3
Lattice="15.0 0.0 0.0 0.0 15.0 0.0 0.0 0.0 15.0" Properties=species:S:1:pos:R:3 energy=0.1623323205 pbc="T T T"
O        0.00000000       0.00000000       0.00000000
H        0.99391679       0.00000000       0.00000000
H       -0.00429854       0.98672674       0.00000000
3
Lattice="15.0 0.0 0.0 0.0 15.0 0.0 0.0 0.0 15.0" Properties=species:S:1:pos:R:3 energy=1.3302400497 pbc="T T T"
O        0.00000000       0.00000000       0.00000000
H        0.93019618       0.00000000       0.00000000
H        0.23308525       1.19754118       0.00000000
3
Lattice="15.0 0.0 0.0 0.0 15.0 0.0 0.0 0.0 15.0" Properties=species:S:1:pos:R:3 energy=0.0053469449 pbc="T T T"
O        0.00000000       0.00000000       0.00000000
H        0.95730318       0.00000000       0.00000000
H       -0.19252220       0.93876726       0.00000000
3
Lattice="15.0 0.0 0.0 0.0 15.0 0.0 0.0 0.0 15.0" Properties=species:S:1:pos:R:3 energy=0.0012393834 pbc="T T T"
O        0.00000000       0.00000000       0.00000000
H        0.96177283       0.00000000       0.00000000
H       -0.25352254       0.92811912       0.00000000
3
Lattice="15.0 0.0 0.0 0.0 15.0 0.0 0.0 0.0 15.0" Properties=species:S:1:pos:R:3 energy=0.0169176071 pbc="T T T"
O        0.00000000       0.00000000       0.00000000
H        0.96973623       0.00000000       0.00000000
H       -0.16627816       0.95567740       0.00000000
3
Lattice="15.0 0.0 0.0 0.0 15.0 0.0 0.0 0.0 15.0" Properties=species:S:1:pos:R:3 energy=0.0512126475 pbc="T T T"
O        0.00000000       0.00000000       0.00000000
H        0.97218295       0.00000000       0.00000000
H       -0.36904454       0.89005859       0.00000000
3
Lattice="15.0 0.0 0.0 0.0 15.0 0.0 0.0 0.0 15.0" Properties=species:S:1:pos:R:3 energy=0.6188220584 pbc="T T T"
O        0.00000000       0.00000000       0.00000000
H        0.86340646       0.00000000       0.00000000
H       -0.37439375       0.77804896       0.00000000
3
Lattice="15.0 0.0 0.0 0.0 15.0 0.0 0.0 0.0 15.0" Properties=species:S:1:pos:R:3 energy=0.0471621212 pbc="T T T"
O        0.00000000       0.00000000       0.00000000
H        0.96728121       0.00000000       0.00000000
H       -0.29831022       0.87428288       0.00000000
3
Lattice="15.0 0.0 0.0 0.0 15.0 0.0 0.0 0.0 15.0" Properties=species:S:1:pos:R:3 energy=0.1785965006 pbc="T T T"
O        0.00000000       0.00000000       0.00000000
H        1.00057832       0.00000000       0.00000000
H       -0.09406357       0.90078110       0.00000000
3
Lattice="15.0 0.0 0.0 0.0 15.0 0.0 0.0 0.0 15.0" Properties=species:S:1:pos:R:3 energy=0.00360571 pbc="T T T"
O        0.00000000       0.00000000       0.00000000
H        0.96357045       0.00000000       0.00000000
H       -0.20255036       0.94081395       0.00000000
3
Lattice="15.0 0.0 0.0 0.0 15.0 0.0 0.0 0.0 15.0" Properties=species:S:1:pos:R:3 energy=1.16108633 pbc="T T T"
O        0.00000000       0.00000000       0.00000000
H        1.03617650       0.00000000       0.00000000
H       -0.62712226       0.56493208       0.00000000
3
Lattice="15.0 0.0 0.0 0.0 15.0 0.0 0.0 0.0 15.0" Properties=species:S:1:pos:R:3 energy=0.0252330911 pbc="T T T"
O        0.00000000       0.00000000       0.00000000
H        0.97045961       0.00000000       0.00000000
H       -0.14144464       0.95448802       0.00000000
3
Lattice="15.0 0.0 0.0 0.0 15.0 0.0 0.0 0.0 15.0" Properties=species:S:1:pos:R:3 energy=0.0340662879 pbc="T T T"
O        0.00000000       0.00000000       0.00000000
H        0.98674785       0.00000000       0.00000000
H       -0.19798843       0.96247070       0.00000000
3
Lattice="15.0 0.0 0.0 0.0 15.0 0.0 0.0 0.0 15.0" Properties=species:S:1:pos:R:3 energy=0.1339952757 pbc="T T T"
O        0.00000000       0.00000000       0.00000000
H        0.90129306       0.00000000       0.00000000
H       -0.30039357       0.94582599       0.00000000
3
Lattice="15.0 0.0 0.0 0.0 15.0 0.0 0.0 0.0 15.0" Properties=species:S:1:pos:R:3 energy=0.2838541663 pbc="T T T"
O        0.00000000       0.00000000       0.00000000
H        1.01163502       0.00000000       0.00000000
H       -0.51251592       0.83870701       0.00000000
3
Lattice="15.0 0.0 0.0 0.0 15.0 0.0 0.0 0.0 15.0" Properties=species:S:1:pos:R:3 energy=0.1711218105 pbc="T T T"
O        0.00000000       0.00000000       0.00000000
H        0.99411127       0.00000000       0.00000000
H       -0.27493135       0.84966209       0.00000000
3
Lattice="15.0 0.0 0.0 0.0 15.0 0.0 0.0 0.0 15.0" Properties=species:S:1:pos:R:3 energy=0.3602752295 pbc="T T T"
O        0.00000000       0.00000000       0.00000000
H        0.86144571       0.00000000       0.00000000
H       -0.40460431       0.87151968       0.00000000
3
Lattice="15.0 0.0 0.0 0.0 15.0 0.0 0.0 0.0 15.0" Properties=species:S:1:pos:R:3 energy=1.0851562717 pbc="T T T"
O        0.00000000       0.00000000       0.00000000
H        0.84468200       0.00000000       0.00000000
H       -0.67659616       0.83401011       0.00000000
3
Lattice="15.0 0.0 0.0 0.0 15.0 0.0 0.0 0.0 15.0" Properties=species:S:1:pos:R:3 energy=0.0477675391 pbc="T T T"
O        0.00000000       0.00000000       0.00000000
H        0.92877746       0.00000000       0.00000000
H       -0.26649307       0.89134409       0.00000000
3
Lattice="15.0 0.0 0.0 0.0 15.0 0.0 0.0 0.0 15.0" Properties=species:S:1:pos:R:3 energy=0.213303067 pbc="T T T"
O        0.00000000       0.00000000       0.00000000
H        0.91560501       0.00000000       0.00000000
H       -0.48019313       0.79674385       0.00000000
3
Lattice="15.0 0.0 0.0 0.0 15.0 0.0 0.0 0.0 15.0" Properties=species:S:1:pos:R:3 energy=1.4302348972 pbc="T T T"
O        0.00000000       0.00000000       0.00000000
H        1.11397795       0.00000000       0.00000000
H       -0.45944813       1.10325140       0.00000000
3
Lattice="15.0 0.0 0.0 0.0 15.0 0.0 0.0 0.0 15.0" Properties=species:S:1:pos:R:3 energy=0.4339787597 pbc="T T T"
O        0.00000000       0.00000000       0.00000000
H        0.90931406       0.00000000       0.00000000
H        0.03028238       1.05641813       0.00000000
3
Lattice="15.0 0.0 0.0 0.0 15.0 0.0 0.0 0.0 15.0" Properties=species:S:1:pos:R:3 energy=0.7377582075 pbc="T T T"
O        0.00000000       0.00000000       0.00000000
H        0.97945983       0.00000000       0.00000000
H       -0.75306937       0.57768325       0.00000000
3
Lattice="15.0 0.0 0.0 0.0 15.0 0.0 0.0 0.0 15.0" Properties=species:S:1:pos:R:3 energy=0.4631952575 pbc="T T T"
O        0.00000000       0.00000000       0.00000000
H        0.94798499       0.00000000       0.00000000
H        0.10596818       1.05854008       0.00000000
3
Lattice="15.0 0.0 0.0 0.0 15.0 0.0 0.0 0.0 15.0" Properties=species:S:1:pos:R:3 energy=0.6985369865 pbc="T T T"
O        0.00000000       0.00000000       0.00000000
H        0.92475000       0.00000000       0.00000000
H        0.21282212       1.04258496       0.00000000
3
Lattice="15.0 0.0 0.0 0.0 15.0 0.0 0.0 0.0 15.0" Properties=species:S:1:pos:R:3 energy=0.1136211749 pbc="T T T"
O        0.00000000       0.00000000       0.00000000
H        0.95109069       0.00000000       0.00000000
H       -0.03368979       0.95577262       0.00000000
3
Lattice="15.0 0.0 0.0 0.0 15.0 0.0 0.0 0.0 15.0" Properties=species:S:1:pos:R:3 energy=0.1514180948 pbc="T T T"
O        0.00000000       0.00000000       0.00000000
H        1.01304459       0.00000000       0.00000000
H       -0.21682895       0.88044454       0.00000000
3
Lattice="15.0 0.0 0.0 0.0 15.0 0.0 0.0 0.0 15.0" Properties=species:S:1:pos:R:3 energy=0.1546239934 pbc="T T T"
O        0.00000000       0.00000000       0.00000000
H        1.01884887       0.00000000       0.00000000
H       -0.36043376       0.92311074       0.00000000
3
Lattice="15.0 0.0 0.0 0.0 15.0 0.0 0.0 0.0 15.0" Properties=species:S:1:pos:R:3 energy=0.2326978055 pbc="T T T"
O        0.00000000       0.00000000       0.00000000
H        0.93356990       0.00000000       0.00000000
H       -0.52866718       0.83414224       0.00000000
3
Lattice="15.0 0.0 0.0 0.0 15.0 0.0 0.0 0.0 15.0" Properties=species:S:1:pos:R:3 energy=1.1682974099 pbc="T T T"
O        0.00000000       0.00000000       0.00000000
H        1.05074619       0.00000000       0.00000000
H       -0.01106431       0.81071796       0.00000000
3
Lattice="15.0 0.0 0.0 0.0 15.0 0.0 0.0 0.0 15.0" Properties=species:S:1:pos:R:3 energy=0.0403502514 pbc="T T T"
O        0.00000000       0.00000000       0.00000000
H        0.93887603       0.00000000       0.00000000
H       -0.33680312       0.87920908       0.00000000
3
Lattice="15.0 0.0 0.0 0.0 15.0 0.0 0.0 0.0 15.0" Properties=species:S:1:pos:R:3 energy=0.1674849625 pbc="T T T"
O        0.00000000       0.00000000       0.00000000
H        0.90665660       0.00000000       0.00000000
H       -0.17826108       0.89209405       0.00000000
3
Lattice="15.0 0.0 0.0 0.0 15.0 0.0 0.0 0.0 15.0" Properties=species:S:1:pos:R:3 energy=0.4204786577 pbc="T T T"
O        0.00000000       0.00000000       0.00000000
H        1.04160556       0.00000000       0.00000000
H       -0.44855124       0.77889308       0.00000000
3
Lattice="15.0 0.0 0.0 0.0 15.0 0.0 0.0 0.0 15.0" Properties=species:S:1:pos:R:3 energy=0.0827505351 pbc="T T T"
O        0.00000000       0.00000000       0.00000000
H        0.93861569       0.00000000       0.00000000
H       -0.38963007       0.84853219       0.00000000
3
Lattice="15.0 0.0 0.0 0.0 15.0 0.0 0.0 0.0 15.0" Properties=species:S:1:pos:R:3 energy=0.0332753046 pbc="T T T"
O        0.00000000       0.00000000       0.00000000
H        0.98047582       0.00000000       0.00000000
H       -0.26981216       0.94832073       0.00000000
3
Lattice="15.0 0.0 0.0 0.0 15.0 0.0 0.0 0.0 15.0" Properties=species:S:1:pos:R:3 energy=0.1377741263 pbc="T T T"
O        0.00000000       0.00000000       0.00000000
H        0.99936512       0.00000000       0.00000000
H       -0.09359249       1.00835432       0.00000000
3
Lattice="15.0 0.0 0.0 0.0 15.0 0.0 0.0 0.0 15.0" Properties=species:S:1:pos:R:3 energy=0.2837359328 pbc="T T T"
O        0.00000000       0.00000000       0.00000000
H        0.97776377       0.00000000       0.00000000
H        0.00877280       1.04704062       0.00000000
3
Lattice="15.0 0.0 0.0 0.0 15.0 0.0 0.0 0.0 15.0" Properties=species:S:1:pos:R:3 energy=1.29731747 pbc="T T T"
O        0.00000000       0.00000000       0.00000000
H        1.18398453       0.00000000       0.00000000
H       -0.12450244       1.12119721       0.00000000
3
Lattice="15.0 0.0 0.0 0.0 15.0 0.0 0.0 0.0 15.0" Properties=species:S:1:pos:R:3 energy=0.2952294916 pbc="T T T"
O        0.00000000       0.00000000       0.00000000
H        0.96601810       0.00000000       0.00000000
H        0.10111138       0.97453726       0.00000000
3
Lattice="15.0 0.0 0.0 0.0 15.0 0.0 0.0 0.0 15.0" Properties=species:S:1:pos:R:3 energy=0.0619914612 pbc="T T T"
O        0.00000000       0.00000000       0.00000000