3
Lattice="15.0 0.0 0.0 0.0 15.0 0.0 0.0 0.0 15.0" Properties=species:S:1:pos:R:3 energy=-0.8456899017 pbc="T T T"
O        0.00000000       0.00000000       0.00000000
H        0.95883000       0.00000000       0.00000000
H        0.35000000       0.60622000       0.00000000
3
Lattice="15.0 0.0 0.0 0.0 15.0 0.0 0.0 0.0 15.0" Properties=species:S:1:pos:R:3 energy=-1.5153885570 pbc="T T T"
O        0.00000000       0.00000000       0.00000000
H        0.95883000       0.00000000       0.00000000
H        0.36842000       0.63812000       0.00000000
3
Lattice="15.0 0.0 0.0 0.0 15.0 0.0 0.0 0.0 15.0" Properties=species:S:1:pos:R:3 energy=-1.9110655930 pbc="T T T"
O        0.00000000       0.00000000       0.00000000
H        0.95883000       0.00000000       0.00000000
H        0.38684000       0.67003000       0.00000000
3
Lattice="15.0 0.0 0.0 0.0 15.0 0.0 0.0 0.0 15.0" Properties=species:S:1:pos:R:3 energy=-2.1009423662 pbc="T T T"
O        0.00000000       0.00000000       0.00000000
H        0.95883000       0.00000000       0.00000000
H        0.40527000       0.70194000       0.00000000
3
Lattice="15.0 0.0 0.0 0.0 15.0 0.0 0.0 0.0 15.0" Properties=species:S:1:pos:R:3 energy=-2.1377608040 pbc="T T T"
O        0.00000000       0.00000000       0.00000000
H        0.95883000       0.00000000       0.00000000
H        0.42369000       0.73384000       0.00000000
3
Lattice="15.0 0.0 0.0 0.0 15.0 0.0 0.0 0.0 15.0" Properties=species:S:1:pos:R:3 energy=-2.0627710869 pbc="T T T"
O        0.00000000       0.00000000       0.00000000
H        0.95883000       0.00000000       0.00000000
H        0.44211000       0.76575000       0.00000000
3
Lattice="15.0 0.0 0.0 0.0 15.0 0.0 0.0 0.0 15.0" Properties=species:S:1:pos:R:3 energy=-1.9083087263 pbc="T T T"
O        0.00000000       0.00000000       0.00000000
H        0.95883000       0.00000000       0.00000000
H        0.46053000       0.79765000       0.00000000
3
Lattice="15.0 0.0 0.0 0.0 15.0 0.0 0.0 0.0 15.0" Properties=species:S:1:pos:R:3 energy=-1.6994828715 pbc="T T T"
O        0.00000000       0.00000000       0.00000000
H        0.95883000       0.00000000       0.00000000
H        0.47895000       0.82956000       0.00000000
3
Lattice="15.0 0.0 0.0 0.0 15.0 0.0 0.0 0.0 15.0" Properties=species:S:1:pos:R:3 energy=-1.4562675938 pbc="T T T"
O        0.00000000       0.00000000       0.00000000
H        0.95883000       0.00000000       0.00000000
H        0.49737000       0.86147000       0.00000000
3
Lattice="15.0 0.0 0.0 0.0 15.0 0.0 0.0 0.0 15.0" Properties=species:S:1:pos:R:3 energy=-1.1944922873 pbc="T T T"
O        0.00000000       0.00000000       0.00000000
H        0.95883000       0.00000000       0.00000000
H        0.51579000       0.89337000       0.00000000
3
Lattice="15.0 0.0 0.0 0.0 15.0 0.0 0.0 0.0 15.0" Properties=species:S:1:pos:R:3 energy=-0.9264468350 pbc="T T T"
O        0.00000000       0.00000000       0.00000000
H        0.95883000       0.00000000       0.00000000
H        0.53421000       0.92528000       0.00000000
3
Lattice="15.0 0.0 0.0 0.0 15.0 0.0 0.0 0.0 15.0" Properties=species:S:1:pos:R:3 energy=-0.6622920278 pbc="T T T"
O        0.00000000       0.00000000       0.00000000
H        0.95883000       0.00000000       0.00000000
H        0.55263000       0.95718000       0.00000000
3
Lattice="15.0 0.0 0.0 0.0 15.0 0.0 0.0 0.0 15.0" Properties=species:S:1:pos:R:3 energy=-0.4097572000 pbc="T T T"
O        0.00000000       0.00000000       0.00000000
H        0.95883000       0.00000000       0.00000000
H        0.57106000       0.98910000       0.00000000
3
Lattice="15.0 0.0 0.0 0.0 15.0 0.0 0.0 0.0 15.0" Properties=species:S:1:pos:R:3 energy=-0.1755924046 pbc="T T T"
O        0.00000000       0.00000000       0.00000000
H        0.95883000       0.00000000       0.00000000
H        0.58948000       1.02100000       0.00000000
3
Lattice="15.0 0.0 0.0 0.0 15.0 0.0 0.0 0.0 15.0" Properties=species:S:1:pos:R:3 energy=0.0352507575 pbc="T T T"
O        0.00000000       0.00000000       0.00000000
H        0.95883000       0.00000000       0.00000000
H        0.60790000       1.05291000       0.00000000
3
Lattice="15.0 0.0 0.0 0.0 15.0 0.0 0.0 0.0 15.0" Properties=species:S:1:pos:R:3 energy=0.2184289109 pbc="T T T"
O        0.00000000       0.00000000       0.00000000
H        0.95883000       0.00000000       0.00000000
H        0.62632000       1.08481000       0.00000000
3
Lattice="15.0 0.0 0.0 0.0 15.0 0.0 0.0 0.0 15.0" Properties=species:S:1:pos:R:3 energy=0.3706198412 pbc="T T T"
O        0.00000000       0.00000000       0.00000000
H        0.95883000       0.00000000       0.00000000
H        0.64474000       1.11671000       0.00000000
3
Lattice="15.0 0.0 0.0 0.0 15.0 0.0 0.0 0.0 15.0" Properties=species:S:1:pos:R:3 energy=0.4891377246 pbc="T T T"
O        0.00000000       0.00000000       0.00000000
H        0.95883000       0.00000000       0.00000000
H        0.66316000       1.14863000       0.00000000
3
Lattice="15.0 0.0 0.0 0.0 15.0 0.0 0.0 0.0 15.0" Properties=species:S:1:pos:R:3 energy=0.5715779897 pbc="T T T"
O        0.00000000       0.00000000       0.00000000
H        0.95883000       0.00000000       0.00000000
H        0.68158000       1.18053000       0.00000000
3
Lattice="15.0 0.0 0.0 0.0 15.0 0.0 0.0 0.0 15.0" Properties=species:S:1:pos:R:3 energy=0.6162322970 pbc="T T T"
O        0.00000000       0.00000000       0.00000000
H        0.95883000       0.00000000       0.00000000
H        0.70000000       1.21244000       0.00000000
3
Lattice="15.0 0.0 0.0 0.0 15.0 0.0 0.0 0.0 15.0" Properties=species:S:1:pos:R:3 energy=-0.4432388256 pbc="T T T"
O        0.00000000       0.00000000       0.00000000
H        0.95883000       0.00000000       0.00000000
H        0.31667000       0.62428000       0.00000000
3
Lattice="15.0 0.0 0.0 0.0 15.0 0.0 0.0 0.0 15.0" Properties=species:S:1:pos:R:3 energy=-1.1057787971 pbc="T T T"
O        0.00000000       0.00000000       0.00000000
H        0.95883000       0.00000000       0.00000000
H        0.33333000       0.65713000       0.00000000
3
Lattice="15.0 0.0 0.0 0.0 15.0 0.0 0.0 0.0 15.0" Properties=species:S:1:pos:R:3 energy=-1.4967260079 pbc="T T T"
O        0.00000000       0.00000000       0.00000000
H        0.95883000       0.00000000       0.00000000
H        0.35000000       0.68999000       0.00000000
3
Lattice="15.0 0.0 0.0 0.0 15.0 0.0 0.0 0.0 15.0" Properties=species:S:1:pos:R:3 energy=-1.6841404974 pbc="T T T"
O        0.00000000       0.00000000       0.00000000
H        0.95883000       0.00000000       0.00000000
H        0.36667000       0.72285000       0.00000000
3
Lattice="15.0 0.0 0.0 0.0 15.0 0.0 0.0 0.0 15.0" Properties=species:S:1:pos:R:3 energy=-1.7210277301 pbc="T T T"
O        0.00000000       0.00000000       0.00000000
H        0.95883000       0.00000000       0.00000000
H        0.38333000       0.75571000       0.00000000
3
Lattice="15.0 0.0 0.0 0.0 15.0 0.0 0.0 0.0 15.0" Properties=species:S:1:pos:R:3 energy=-1.6490013029 pbc="T T T"
O        0.00000000       0.00000000       0.00000000
H        0.95883000       0.00000000       0.00000000
H        0.40000000       0.78856000       0.00000000
3
Lattice="15.0 0.0 0.0 0.0 15.0 0.0 0.0 0.0 15.0" Properties=species:S:1:pos:R:3 energy=-1.5002599286 pbc="T T T"
O        0.00000000       0.00000000       0.00000000
H        0.95883000       0.00000000       0.00000000
H        0.41667000       0.82142000       0.00000000
3
Lattice="15.0 0.0 0.0 0.0 15.0 0.0 0.0 0.0 15.0" Properties=species:S:1:pos:R:3 energy=-1.3003585258 pbc="T T T"
O        0.00000000       0.00000000       0.00000000
H        0.95883000       0.00000000       0.00000000
H        0.43333000       0.85427000       0.00000000
3
Lattice="15.0 0.0 0.0 0.0 15.0 0.0 0.0 0.0 15.0" Properties=species:S:1:pos:R:3 energy=-1.0692855291 pbc="T T T"
O        0.00000000       0.00000000       0.00000000
H        0.95883000       0.00000000       0.00000000
H        0.45000000       0.88713000       0.00000000
3
Lattice="15.0 0.0 0.0 0.0 15.0 0.0 0.0 0.0 15.0" Properties=species:S:1:pos:R:3 energy=-0.8229661884 pbc="T T T"
O        0.00000000       0.00000000       0.00000000
H        0.95883000       0.00000000       0.00000000
H        0.46667000       0.91999000       0.00000000
3
Lattice="15.0 0.0 0.0 0.0 15.0 0.0 0.0 0.0 15.0" Properties=species:S:1:pos:R:3 energy=-0.5741025646 pbc="T T T"
O        0.00000000       0.00000000       0.00000000
H        0.95883000       0.00000000       0.00000000
H        0.48333000       0.95284000       0.00000000
3
Lattice="15.0 0.0 0.0 0.0 15.0 0.0 0.0 0.0 15.0" Properties=species:S:1:pos:R:3 energy=-0.3326487003 pbc="T T T"
O        0.00000000       0.00000000       0.00000000
H        0.95883000       0.00000000       0.00000000
H        0.50000000       0.98570000       0.00000000
3
Lattice="15.0 0.0 0.0 0.0 15.0 0.0 0.0 0.0 15.0" Properties=species:S:1:pos:R:3 energy=-0.1067568775 pbc="T T T"
O        0.00000000       0.00000000       0.00000000
H        0.95883000       0.00000000       0.00000000
H        0.51667000       1.01856000       0.00000000
3
Lattice="15.0 0.0 0.0 0.0 15.0 0.0 0.0 0.0 15.0" Properties=species:S:1:pos:R:3 energy=0.0970771101 pbc="T T T"
O        0.00000000       0.00000000       0.00000000
H        0.95883000       0.00000000       0.00000000
H        0.53333000       1.05142000       0.00000000
3
Lattice="15.0 0.0 0.0 0.0 15.0 0.0 0.0 0.0 15.0" Properties=species:S:1:pos:R:3 energy=0.2735413173 pbc="T T T"
O        0.00000000       0.00000000       0.00000000
H        0.95883000       0.00000000       0.00000000
H        0.55000000       1.08427000       0.00000000
3
Lattice="15.0 0.0 0.0 0.0 15.0 0.0 0.0 0.0 15.0" Properties=species:S:1:pos:R:3 energy=0.4185271494 pbc="T T T"
O        0.00000000       0.00000000       0.00000000
H        0.95883000       0.00000000       0.00000000
H        0.56667000       1.11713000       0.00000000
3
Lattice="15.0 0.0 0.0 0.0 15.0 0.0 0.0 0.0 15.0" Properties=species:S:1:pos:R:3 energy=0.5285236499 pbc="T T T"
O        0.00000000       0.00000000       0.00000000
H        0.95883000       0.00000000       0.00000000
H        0.58333000       1.14998000       0.00000000
3
Lattice="15.0 0.0 0.0 0.0 15.0 0.0 0.0 0.0 15.0" Properties=species:S:1:pos:R:3 energy=0.6008463472 pbc="T T T"
O        0.00000000       0.00000000       0.00000000
H        0.95883000       0.00000000       0.00000000
H        0.60000000       1.18285000       0.00000000
3
Lattice="15.0 0.0 0.0 0.0 15.0 0.0 0.0 0.0 15.0" Properties=species:S:1:pos:R:3 energy=0.6331754350 pbc="T T T"
O        0.00000000       0.00000000       0.00000000
H        0.95883000       0.00000000       0.00000000
H        0.61667000       1.21570000       0.00000000
3
Lattice="15.0 0.0 0.0 0.0 15.0 0.0 0.0 0.0 15.0" Properties=species:S:1:pos:R:3 energy=0.6237638499 pbc="T T T"
O        0.00000000       0.00000000       0.00000000
H        0.95883000       0.00000000       0.00000000
H        0.63333000       1.24855000       0.00000000
3
Lattice="15.0 0.0 0.0 0.0 15.0 0.0 0.0 0.0 15.0" Properties=species:S:1:pos:R:3 energy=-0.0823019550 pbc="T T T"
O        0.00000000       0.00000000       0.00000000
H        0.95883000       0.00000000       0.00000000
H        0.28240000       0.64051000       0.00000000
3
Lattice="15.0 0.0 0.0 0.0 15.0 0.0 0.0 0.0 15.0" Properties=species:S:1:pos:R:3 energy=-0.7413310249 pbc="T T T"
O        0.00000000       0.00000000       0.00000000
H        0.95883000       0.00000000       0.00000000
H        0.29727000       0.67421000       0.00000000
3
Lattice="15.0 0.0 0.0 0.0 15.0 0.0 0.0 0.0 15.0" Properties=species:S:1:pos:R:3 energy=-1.1310302991 pbc="T T T"
O        0.00000000       0.00000000       0.00000000
H        0.95883000       0.00000000       0.00000000
H        0.31213000       0.70792000       0.00000000
3
Lattice="15.0 0.0 0.0 0.0 15.0 0.0 0.0 0.0 15.0" Properties=species:S:1:pos:R:3 energy=-1.3199712280 pbc="T T T"
O        0.00000000       0.00000000       0.00000000
H        0.95883000       0.00000000       0.00000000
H        0.32700000       0.74164000       0.00000000
3
Lattice="15.0 0.0 0.0 0.0 15.0 0.0 0.0 0.0 15.0" Properties=species:S:1:pos:R:3 energy=-1.3611356774 pbc="T T T"
O        0.00000000       0.00000000       0.00000000
H        0.95883000       0.00000000       0.00000000
H        0.34186000       0.77535000       0.00000000
3
Lattice="15.0 0.0 0.0 0.0 15.0 0.0 0.0 0.0 15.0" Properties=species:S:1:pos:R:3 energy=-1.2961730837 pbc="T T T"
O        0.00000000       0.00000000       0.00000000
H        0.95883000       0.00000000       0.00000000
H        0.35672000       0.80906000       0.00000000
3
Lattice="15.0 0.0 0.0 0.0 15.0 0.0 0.0 0.0 15.0" Properties=species:S:1:pos:R:3 energy=-1.1576162372 pbc="T T T"
O        0.00000000       0.00000000       0.00000000
H        0.95883000       0.00000000       0.00000000
H        0.37158000       0.84277000       0.00000000
3
Lattice="15.0 0.0 0.0 0.0 15.0 0.0 0.0 0.0 15.0" Properties=species:S:1:pos:R:3 energy=-0.9710861696 pbc="T T T"
O        0.00000000       0.00000000       0.00000000
H        0.95883000       0.00000000       0.00000000
H        0.38645000       0.87648000       0.00000000
3
Lattice="15.0 0.0 0.0 0.0 15.0 0.0 0.0 0.0 15.0" Properties=species:S:1:pos:R:3 energy=-0.7566417734 pbc="T T T"
O        0.00000000       0.00000000       0.00000000
H        0.95883000       0.00000000       0.00000000
H        0.40131000       0.91020000       0.00000000
3
Lattice="15.0 0.0 0.0 0.0 15.0 0.0 0.0 0.0 15.0" Properties=species:S:1:pos:R:3 energy=-0.5305762602 pbc="T T T"
O        0.00000000       0.00000000       0.00000000
H        0.95883000       0.00000000       0.00000000
H        0.41618000       0.94390000       0.00000000
3
Lattice="15.0 0.0 0.0 0.0 15.0 0.0 0.0 0.0 15.0" Properties=species:S:1:pos:R:3 energy=-0.3053606660 pbc="T T T"
O        0.00000000       0.00000000       0.00000000
H        0.95883000       0.00000000       0.00000000
H        0.43104000       0.97761000       0.00000000
3
Lattice="15.0 0.0 0.0 0.0 15.0 0.0 0.0 0.0 15.0" Properties=species:S:1:pos:R:3 energy=-0.0912687970 pbc="T T T"
O        0.00000000       0.00000000       0.00000000
H        0.95883000       0.00000000       0.00000000
H        0.44590000       1.01132000       0.00000000
3
Lattice="15.0 0.0 0.0 0.0 15.0 0.0 0.0 0.0 15.0" Properties=species:S:1:pos:R:3 energy=0.1035949256 pbc="T T T"
O        0.00000000       0.00000000       0.00000000
H        0.95883000       0.00000000       0.00000000
H        0.46077000       1.04504000       0.00000000
3
Lattice="15.0 0.0 0.0 0.0 15.0 0.0 0.0 0.0 15.0" Properties=species:S:1:pos:R:3 energy=0.2725645037 pbc="T T T"
O        0.00000000       0.00000000       0.00000000
H        0.95883000       0.00000000       0.00000000
H        0.47563000       1.07875000       0.00000000
3
Lattice="15.0 0.0 0.0 0.0 15.0 0.0 0.0 0.0 15.0" Properties=species:S:1:pos:R:3 energy=0.4104159908 pbc="T T T"
O        0.00000000       0.00000000       0.00000000
H        0.95883000       0.00000000       0.00000000
H        0.49049000       1.11246000       0.00000000
3
Lattice="15.0 0.0 0.0 0.0 15.0 0.0 0.0 0.0 15.0" Properties=species:S:1:pos:R:3 energy=0.5128908238 pbc="T T T"
O        0.00000000       0.00000000       0.00000000
H        0.95883000       0.00000000       0.00000000
H        0.50535000       1.14617000       0.00000000
3
Lattice="15.0 0.0 0.0 0.0 15.0 0.0 0.0 0.0 15.0" Properties=species:S:1:pos:R:3 energy=0.5765584693 pbc="T T T"
O        0.00000000       0.00000000       0.00000000
H        0.95883000       0.00000000       0.00000000
H        0.52022000       1.17988000       0.00000000
3
Lattice="15.0 0.0 0.0 0.0 15.0 0.0 0.0 0.0 15.0" Properties=species:S:1:pos:R:3 energy=0.5986407954 pbc="T T T"
O        0.00000000       0.00000000       0.00000000
H        0.95883000       0.00000000       0.00000000
H        0.53508000       1.21359000       0.00000000
3
Lattice="15.0 0.0 0.0 0.0 15.0 0.0 0.0 0.0 15.0" Properties=species:S:1:pos:R:3 energy=0.5769178475 pbc="T T T"
O        0.00000000       0.00000000       0.00000000
H        0.95883000       0.00000000       0.00000000
H        0.54995000       1.24730000       0.00000000
3
Lattice="15.0 0.0 0.0 0.0 15.0 0.0 0.0 0.0 15.0" Properties=species:S:1:pos:R:3 energy=0.5095801315 pbc="T T T"
O        0.00000000       0.00000000       0.00000000
H        0.95883000       0.00000000       0.00000000
H        0.56481000       1.28101000       0.00000000
3
Lattice="15.0 0.0 0.0 0.0 15.0 0.0 0.0 0.0 15.0" Properties=species:S:1:pos:R:3 energy=0.2378555650 pbc="T T T"
O        0.00000000       0.00000000       0.00000000
H        0.95883000       0.00000000       0.00000000
H        0.24731000       0.65486000       0.00000000
3
Lattice="15.0 0.0 0.0 0.0 15.0 0.0 0.0 0.0 15.0" Properties=species:S:1:pos:R:3 energy=-0.4204281468 pbc="T T T"
O        0.00000000       0.00000000       0.00000000
H        0.95883000       0.00000000       0.00000000
H        0.26033000       0.68932000       0.00000000
3
Lattice="15.0 0.0 0.0 0.0 15.0 0.0 0.0 0.0 15.0" Properties=species:S:1:pos:R:3 energy=-0.8120753355 pbc="T T T"
O        0.00000000       0.00000000       0.00000000
H        0.95883000       0.00000000       0.00000000
H        0.27335000       0.72378000       0.00000000
3
Lattice="15.0 0.0 0.0 0.0 15.0 0.0 0.0 0.0 15.0" Properties=species:S:1:pos:R:3 energy=-1.0056734566 pbc="T T T"
O        0.00000000       0.00000000       0.00000000
H        0.95883000       0.00000000       0.00000000
H        0.28637000       0.75826000       0.00000000
3
Lattice="15.0 0.0 0.0 0.0 15.0 0.0 0.0 0.0 15.0" Properties=species:S:1:pos:R:3 energy=-1.0543694920 pbc="T T T"
O        0.00000000       0.00000000       0.00000000
H        0.95883000       0.00000000       0.00000000
H        0.29938000       0.79272000       0.00000000
3
Lattice="15.0 0.0 0.0 0.0 15.0 0.0 0.0 0.0 15.0" Properties=species:S:1:pos:R:3 energy=-0.9999516150 pbc="T T T"
O        0.00000000       0.00000000       0.00000000
H        0.95883000       0.00000000       0.00000000
H        0.31240000       0.82719000       0.00000000
3
Lattice="15.0 0.0 0.0 0.0 15.0 0.0 0.0 0.0 15.0" Properties=species:S:1:pos:R:3 energy=-0.8750315856 pbc="T T T"
O        0.00000000       0.00000000       0.00000000
H        0.95883000       0.00000000       0.00000000
H        0.32541000       0.86165000       0.00000000
3
Lattice="15.0 0.0 0.0 0.0 15.0 0.0 0.0 0.0 15.0" Properties=species:S:1:pos:R:3 energy=-0.7053591607 pbc="T T T"
O        0.00000000       0.00000000       0.00000000
H        0.95883000       0.00000000       0.00000000
H        0.33843000       0.89611000       0.00000000
3
Lattice="15.0 0.0 0.0 0.0 15.0 0.0 0.0 0.0 15.0" Properties=species:S:1:pos:R:3 energy=-0.5110668246 pbc="T T T"
O        0.00000000       0.00000000       0.00000000
H        0.95883000       0.00000000       0.00000000
H        0.35145000       0.93059000       0.00000000
3
Lattice="15.0 0.0 0.0 0.0 15.0 0.0 0.0 0.0 15.0" Properties=species:S:1:pos:R:3 energy=-0.3085102598 pbc="T T T"
O        0.00000000       0.00000000       0.00000000
H        0.95883000       0.00000000       0.00000000
H        0.36446000       0.96505000       0.00000000
3
Lattice="15.0 0.0 0.0 0.0 15.0 0.0 0.0 0.0 15.0" Properties=species:S:1:pos:R:3 energy=-0.1103537314 pbc="T T T"
O        0.00000000       0.00000000       0.00000000
H        0.95883000       0.00000000       0.00000000
H        0.37748000       0.99952000       0.00000000
3
Lattice="15.0 0.0 0.0 0.0 15.0 0.0 0.0 0.0 15.0" Properties=species:S:1:pos:R:3 energy=0.0730530128 pbc="T T T"
O        0.00000000       0.00000000       0.00000000
H        0.95883000       0.00000000       0.00000000
H        0.39050000       1.03398000       0.00000000
3
Lattice="15.0 0.0 0.0 0.0 15.0 0.0 0.0 0.0 15.0" Properties=species:S:1:pos:R:3 energy=0.2336060184 pbc="T T T"
O        0.00000000       0.00000000       0.00000000
H        0.95883000       0.00000000       0.00000000
H        0.40351000       1.06845000       0.00000000
3
Lattice="15.0 0.0 0.0 0.0 15.0 0.0 0.0 0.0 15.0" Properties=species:S:1:pos:R:3 energy=0.3646407933 pbc="T T T"
O        0.00000000       0.00000000       0.00000000
H        0.95883000       0.00000000       0.00000000
H        0.41653000       1.10292000       0.00000000
3
Lattice="15.0 0.0 0.0 0.0 15.0 0.0 0.0 0.0 15.0" Properties=species:S:1:pos:R:3 energy=0.4608261132 pbc="T T T"
O        0.00000000       0.00000000       0.00000000
H        0.95883000       0.00000000       0.00000000
H        0.42955000       1.13738000       0.00000000
3
Lattice="15.0 0.0 0.0 0.0 15.0 0.0 0.0 0.0 15.0" Properties=species:S:1:pos:R:3 energy=0.5179254609 pbc="T T T"
O        0.00000000       0.00000000       0.00000000
H        0.95883000       0.00000000       0.00000000
H        0.44256000       1.17185000       0.00000000
3
Lattice="15.0 0.0 0.0 0.0 15.0 0.0 0.0 0.0 15.0" Properties=species:S:1:pos:R:3 energy=0.5324771931 pbc="T T T"
O        0.00000000       0.00000000       0.00000000
H        0.95883000       0.00000000       0.00000000
H        0.45558000       1.20631000       0.00000000
3
Lattice="15.0 0.0 0.0 0.0 15.0 0.0 0.0 0.0 15.0" Properties=species:S:1:pos:R:3 energy=0.5017007188 pbc="T T T"
O        0.00000000       0.00000000       0.00000000
H        0.95883000       0.00000000       0.00000000
H        0.46860000       1.24078000       0.00000000
3
Lattice="15.0 0.0 0.0 0.0 15.0 0.0 0.0 0.0 15.0" Properties=species:S:1:pos:R:3 energy=0.4233418132 pbc="T T T"
O        0.00000000       0.00000000       0.00000000
H        0.95883000       0.00000000       0.00000000
H        0.48161000       1.27525000       0.00000000
3
Lattice="15.0 0.0 0.0 0.0 15.0 0.0 0.0 0.0 15.0" Properties=species:S:1:pos:R:3 energy=0.2956888380 pbc="T T T"
O        0.00000000       0.00000000       0.00000000
H        0.95883000       0.00000000       0.00000000
H        0.49463000       1.30971000       0.00000000
3
Lattice="15.0 0.0 0.0 0.0 15.0 0.0 0.0 0.0 15.0" Properties=species:S:1:pos:R:3 energy=0.5192296061 pbc="T T T"
O        0.00000000       0.00000000       0.00000000
H        0.95883000       0.00000000       0.00000000
H        0.21150000       0.66728000       0.00000000
3
Lattice="15.0 0.0 0.0 0.0 15.0 0.0 0.0 0.0 15.0" Properties=species:S:1:pos:R:3 energy=-0.1408182020 pbc="T T T"
O        0.00000000       0.00000000       0.00000000
H        0.95883000       0.00000000       0.00000000
H        0.22263000       0.70240000       0.00000000
3
Lattice="15.0 0.0 0.0 0.0 15.0 0.0 0.0 0.0 15.0" Properties=species:S:1:pos:R:3 energy=-0.5368772023 pbc="T T T"
O        0.00000000       0.00000000       0.00000000
H        0.95883000       0.00000000       0.00000000
H        0.23376000       0.73752000       0.00000000
3
Lattice="15.0 0.0 0.0 0.0 15.0 0.0 0.0 0.0 15.0" Properties=species:S:1:pos:R:3 energy=-0.7376494436 pbc="T T T"
O        0.00000000       0.00000000       0.00000000
H        0.95883000       0.00000000       0.00000000
H        0.24489000       0.77265000       0.00000000
3
Lattice="15.0 0.0 0.0 0.0 15.0 0.0 0.0 0.0 15.0" Properties=species:S:1:pos:R:3 energy=-0.7964691190 pbc="T T T"
O        0.00000000       0.00000000       0.00000000
H        0.95883000       0.00000000       0.00000000
H        0.25602000       0.80777000       0.00000000
3
Lattice="15.0 0.0 0.0 0.0 15.0 0.0 0.0 0.0 15.0" Properties=species:S:1:pos:R:3 energy=-0.7551521569 pbc="T T T"
O        0.00000000       0.00000000       0.00000000
H        0.95883000       0.00000000       0.00000000
H        0.26716000       0.84289000       0.00000000
3
Lattice="15.0 0.0 0.0 0.0 15.0 0.0 0.0 0.0 15.0" Properties=species:S:1:pos:R:3 energy=-0.6464092777 pbc="T T T"
O        0.00000000       0.00000000       0.00000000
H        0.95883000       0.00000000       0.00000000
H        0.27829000       0.87800000       0.00000000
3
Lattice="15.0 0.0 0.0 0.0 15.0 0.0 0.0 0.0 15.0" Properties=species:S:1:pos:R:3 energy=-0.4960027732 pbc="T T T"
O        0.00000000       0.00000000       0.00000000
H        0.95883000       0.00000000       0.00000000
H        0.28942000       0.91312000       0.00000000
3
Lattice="15.0 0.0 0.0 0.0 15.0 0.0 0.0 0.0 15.0" Properties=species:S:1:pos:R:3 energy=-0.3243137566 pbc="T T T"
O        0.00000000       0.00000000       0.00000000
H        0.95883000       0.00000000       0.00000000
H        0.30055000       0.94825000       0.00000000
3
Lattice="15.0 0.0 0.0 0.0 15.0 0.0 0.0 0.0 15.0" Properties=species:S:1:pos:R:3 energy=-0.1476425609 pbc="T T T"
O        0.00000000       0.00000000       0.00000000
H        0.95883000       0.00000000       0.00000000
H        0.31168000       0.98337000       0.00000000
3
Lattice="15.0 0.0 0.0 0.0 15.0 0.0 0.0 0.0 15.0" Properties=species:S:1:pos:R:3 energy=0.0211717944 pbc="T T T"
O        0.00000000       0.00000000       0.00000000
H        0.95883000       0.00000000       0.00000000
H        0.32281000       1.01849000       0.00000000
3
Lattice="15.0 0.0 0.0 0.0 15.0 0.0 0.0 0.0 15.0" Properties=species:S:1:pos:R:3 energy=0.1717872936 pbc="T T T"
O        0.00000000       0.00000000       0.00000000
H        0.95883000       0.00000000       0.00000000
H        0.33394000       1.05360000       0.00000000
3
Lattice="15.0 0.0 0.0 0.0 15.0 0.0 0.0 0.0 15.0" Properties=species:S:1:pos:R:3 energy=0.2960685735 pbc="T T T"
O        0.00000000       0.00000000       0.00000000
H        0.95883000       0.00000000       0.00000000
H        0.34508000       1.08873000       0.00000000
3
Lattice="15.0 0.0 0.0 0.0 15.0 0.0 0.0 0.0 15.0" Properties=species:S:1:pos:R:3 energy=0.3872595195 pbc="T T T"
O        0.00000000       0.00000000       0.00000000
H        0.95883000       0.00000000       0.00000000
H        0.35621000       1.12385000       0.00000000
3
Lattice="15.0 0.0 0.0 0.0 15.0 0.0 0.0 0.0 15.0" Properties=species:S:1:pos:R:3 energy=0.4400627846 pbc="T T T"
O        0.00000000       0.00000000       0.00000000
H        0.95883000       0.00000000       0.00000000
H        0.36734000       1.15897000       0.00000000
3
Lattice="15.0 0.0 0.0 0.0 15.0 0.0 0.0 0.0 15.0" Properties=species:S:1:pos:R:3 energy=0.4501813999 pbc="T T T"
O        0.00000000       0.00000000       0.00000000
H        0.95883000       0.00000000       0.00000000
H        0.37847000       1.19409000       0.00000000
3
Lattice="15.0 0.0 0.0 0.0 15.0 0.0 0.0 0.0 15.0" Properties=species:S:1:pos:R:3 energy=0.4141786059 pbc="T T T"
O        0.00000000       0.00000000       0.00000000
H        0.95883000       0.00000000       0.00000000
H        0.38960000       1.22920000       0.00000000
3
Lattice="15.0 0.0 0.0 0.0 15.0 0.0 0.0 0.0 15.0" Properties=species:S:1:pos:R:3 energy=0.3292074262 pbc="T T T"
O        0.00000000       0.00000000       0.00000000
H        0.95883000       0.00000000       0.00000000
H        0.40073000       1.26433000       0.00000000
3
Lattice="15.0 0.0 0.0 0.0 15.0 0.0 0.0 0.0 15.0" Properties=species:S:1:pos:R:3 energy=0.1931225651 pbc="T T T"
O        0.00000000       0.00000000       0.00000000
H        0.95883000       0.00000000       0.00000000
H        0.41187000       1.29945000       0.00000000
3
Lattice="15.0 0.0 0.0 0.0 15.0 0.0 0.0 0.0 15.0" Properties=species:S:1:pos:R:3 energy=0.0040764349 pbc="T T T"
O        0.00000000       0.00000000       0.00000000
H        0.95883000       0.00000000       0.00000000
H        0.42300000       1.33457000       0.00000000
3
Lattice="15.0 0.0 0.0 0.0 15.0 0.0 0.0 0.0 15.0" Properties=species:S:1:pos:R:3 energy=0.7637199455 pbc="T T T"
O        0.00000000       0.00000000       0.00000000
H        0.95883000       0.00000000       0.00000000
H        0.17506000       0.67776000       0.00000000
3
Lattice="15.0 0.0 0.0 0.0 15.0 0.0 0.0 0.0 15.0" Properties=species:S:1:pos:R:3 energy=0.1000555569 pbc="T T T"
O        0.00000000       0.00000000       0.00000000
H        0.95883000       0.00000000       0.00000000
H        0.18428000       0.71343000       0.00000000
3
Lattice="15.0 0.0 0.0 0.0 15.0 0.0 0.0 0.0 15.0" Properties=species:S:1:pos:R:3 energy=-0.3021572109 pbc="T T T"
O        0.00000000       0.00000000       0.00000000
H        0.95883000       0.00000000       0.00000000
H        0.19349000       0.74909000       0.00000000
3
Lattice="15.0 0.0 0.0 0.0 15.0 0.0 0.0 0.0 15.0" Properties=species:S:1:pos:R:3 energy=-0.5119799898 pbc="T T T"
O        0.00000000       0.00000000       0.00000000
H        0.95883000       0.00000000       0.00000000
H        0.20270000       0.78477000       0.00000000
3
Lattice="15.0 0.0 0.0 0.0 15.0 0.0 0.0 0.0 15.0" Properties=species:S:1:pos:R:3 energy=-0.5827243085 pbc="T T T"
O        0.00000000       0.00000000       0.00000000
H        0.95883000       0.00000000       0.00000000
H        0.21192000       0.82044000       0.00000000
3
Lattice="15.0 0.0 0.0 0.0 15.0 0.0 0.0 0.0 15.0" Properties=species:S:1:pos:R:3 energy=-0.5561611732 pbc="T T T"
O        0.00000000       0.00000000       0.00000000
H        0.95883000       0.00000000       0.00000000
H        0.22113000       0.85611000       0.00000000
3
Lattice="15.0 0.0 0.0 0.0 15.0 0.0 0.0 0.0 15.0" Properties=species:S:1:pos:R:3 energy=-0.4651711701 pbc="T T T"
O        0.00000000       0.00000000       0.00000000
H        0.95883000       0.00000000       0.00000000
H        0.23034000       0.89178000       0.00000000
3
Lattice="15.0 0.0 0.0 0.0 15.0 0.0 0.0 0.0 15.0" Properties=species:S:1:pos:R:3 energy=-0.3356481949 pbc="T T T"
O        0.00000000       0.00000000       0.00000000
H        0.95883000       0.00000000       0.00000000
H        0.23956000       0.92745000       0.00000000
3
Lattice="15.0 0.0 0.0 0.0 15.0 0.0 0.0 0.0 15.0" Properties=species:S:1:pos:R:3 energy=-0.1879808863 pbc="T T T"