3
Lattice="15.0 0.0 0.0 0.0 15.0 0.0 0.0 0.0 15.0" Properties=species:S:1:pos:R:3 energy=0.5783722426 pbc="T T T"
O        0.00000000       0.00000000       0.00000000
H        0.95883000       0.00000000       0.00000000
H        0.35000000       0.60622000       0.00000000
3
Lattice="15.0 0.0 0.0 0.0 15.0 0.0 0.0 0.0 15.0" Properties=species:S:1:pos:R:3 energy=0.4581991831 pbc="T T T"
O        0.00000000       0.00000000       0.00000000
H        0.95883000       0.00000000       0.00000000
H        0.36842000       0.63812000       0.00000000
3
Lattice="15.0 0.0 0.0 0.0 15.0 0.0 0.0 0.0 15.0" Properties=species:S:1:pos:R:3 energy=0.3651612855 pbc="T T T"
O        0.00000000       0.00000000       0.00000000
H        0.95883000       0.00000000       0.00000000
H        0.38684000       0.67003000       0.00000000
3
Lattice="15.0 0.0 0.0 0.0 15.0 0.0 0.0 0.0 15.0" Properties=species:S:1:pos:R:3 energy=0.2844707251 pbc="T T T"
O        0.00000000       0.00000000       0.00000000
H        0.95883000       0.00000000       0.00000000
H        0.40527000       0.70194000       0.00000000
3
Lattice="15.0 0.0 0.0 0.0 15.0 0.0 0.0 0.0 15.0" Properties=species:S:1:pos:R:3 energy=0.2072842770 pbc="T T T"
O        0.00000000       0.00000000       0.00000000
H        0.95883000       0.00000000       0.00000000
H        0.42369000       0.73384000       0.00000000
3
Lattice="15.0 0.0 0.0 0.0 15.0 0.0 0.0 0.0 15.0" Properties=species:S:1:pos:R:3 energy=0.1288724948 pbc="T T T"
O        0.00000000       0.00000000       0.00000000
H        0.95883000       0.00000000       0.00000000
H        0.44211000       0.76575000       0.00000000
3
Lattice="15.0 0.0 0.0 0.0 15.0 0.0 0.0 0.0 15.0" Properties=species:S:1:pos:R:3 energy=0.0475189725 pbc="T T T"
O        0.00000000       0.00000000       0.00000000
H        0.95883000       0.00000000       0.00000000
H        0.46053000       0.79765000       0.00000000
3
Lattice="15.0 0.0 0.0 0.0 15.0 0.0 0.0 0.0 15.0" Properties=species:S:1:pos:R:3 energy=-0.0370902379 pbc="T T T"
O        0.00000000       0.00000000       0.00000000
H        0.95883000       0.00000000       0.00000000
H        0.47895000       0.82956000       0.00000000
3
Lattice="15.0 0.0 0.0 0.0 15.0 0.0 0.0 0.0 15.0" Properties=species:S:1:pos:R:3 energy=-0.1241471241 pbc="T T T"
O        0.00000000       0.00000000       0.00000000
H        0.95883000       0.00000000       0.00000000
H        0.49737000       0.86147000       0.00000000
3
Lattice="15.0 0.0 0.0 0.0 15.0 0.0 0.0 0.0 15.0" Properties=species:S:1:pos:R:3 energy=-0.2123866341 pbc="T T T"
O        0.00000000       0.00000000       0.00000000
H        0.95883000       0.00000000       0.00000000
H        0.51579000       0.89337000       0.00000000
3
Lattice="15.0 0.0 0.0 0.0 15.0 0.0 0.0 0.0 15.0" Properties=species:S:1:pos:R:3 energy=-0.3003834774 pbc="T T T"
O        0.00000000       0.00000000       0.00000000
H        0.95883000       0.00000000       0.00000000
H        0.53421000       0.92528000       0.00000000
3
Lattice="15.0 0.0 0.0 0.0 15.0 0.0 0.0 0.0 15.0" Properties=species:S:1:pos:R:3 energy=-0.3867773329 pbc="T T T"
O        0.00000000       0.00000000       0.00000000
H        0.95883000       0.00000000       0.00000000
H        0.55263000       0.95718000       0.00000000
3
Lattice="15.0 0.0 0.0 0.0 15.0 0.0 0.0 0.0 15.0" Properties=species:S:1:pos:R:3 energy=-0.4703610262 pbc="T T T"
O        0.00000000       0.00000000       0.00000000
H        0.95883000       0.00000000       0.00000000
H        0.57106000       0.98910000       0.00000000
3
Lattice="15.0 0.0 0.0 0.0 15.0 0.0 0.0 0.0 15.0" Properties=species:S:1:pos:R:3 energy=-0.5499789544 pbc="T T T"
O        0.00000000       0.00000000       0.00000000
H        0.95883000       0.00000000       0.00000000
H        0.58948000       1.02100000       0.00000000
3
Lattice="15.0 0.0 0.0 0.0 15.0 0.0 0.0 0.0 15.0" Properties=species:S:1:pos:R:3 energy=-0.6250037711 pbc="T T T"
O        0.00000000       0.00000000       0.00000000
H        0.95883000       0.00000000       0.00000000
H        0.60790000       1.05291000       0.00000000
3
Lattice="15.0 0.0 0.0 0.0 15.0 0.0 0.0 0.0 15.0" Properties=species:S:1:pos:R:3 energy=-0.6947161252 pbc="T T T"
O        0.00000000       0.00000000       0.00000000
H        0.95883000       0.00000000       0.00000000
H        0.62632000       1.08481000       0.00000000
3
Lattice="15.0 0.0 0.0 0.0 15.0 0.0 0.0 0.0 15.0" Properties=species:S:1:pos:R:3 energy=-0.7588954577 pbc="T T T"
O        0.00000000       0.00000000       0.00000000
H        0.95883000       0.00000000       0.00000000
H        0.64474000       1.11671000       0.00000000
3
Lattice="15.0 0.0 0.0 0.0 15.0 0.0 0.0 0.0 15.0" Properties=species:S:1:pos:R:3 energy=-0.8172713482 pbc="T T T"
O        0.00000000       0.00000000       0.00000000
H        0.95883000       0.00000000       0.00000000
H        0.66316000       1.14863000       0.00000000
3
Lattice="15.0 0.0 0.0 0.0 15.0 0.0 0.0 0.0 15.0" Properties=species:S:1:pos:R:3 energy=-0.8698907431 pbc="T T T"
O        0.00000000       0.00000000       0.00000000
H        0.95883000       0.00000000       0.00000000
H        0.68158000       1.18053000       0.00000000
3
Lattice="15.0 0.0 0.0 0.0 15.0 0.0 0.0 0.0 15.0" Properties=species:S:1:pos:R:3 energy=-0.9167938367 pbc="T T T"
O        0.00000000       0.00000000       0.00000000
H        0.95883000       0.00000000       0.00000000
H        0.70000000       1.21244000       0.00000000
3
Lattice="15.0 0.0 0.0 0.0 15.0 0.0 0.0 0.0 15.0" Properties=species:S:1:pos:R:3 energy=0.5332286453 pbc="T T T"
O        0.00000000       0.00000000       0.00000000
H        0.95883000       0.00000000       0.00000000
H        0.31667000       0.62428000       0.00000000
3
Lattice="15.0 0.0 0.0 0.0 15.0 0.0 0.0 0.0 15.0" Properties=species:S:1:pos:R:3 energy=0.4182491999 pbc="T T T"
O        0.00000000       0.00000000       0.00000000
H        0.95883000       0.00000000       0.00000000
H        0.33333000       0.65713000       0.00000000
3
Lattice="15.0 0.0 0.0 0.0 15.0 0.0 0.0 0.0 15.0" Properties=species:S:1:pos:R:3 energy=0.3315569256 pbc="T T T"
O        0.00000000       0.00000000       0.00000000
H        0.95883000       0.00000000       0.00000000
H        0.35000000       0.68999000       0.00000000
3
Lattice="15.0 0.0 0.0 0.0 15.0 0.0 0.0 0.0 15.0" Properties=species:S:1:pos:R:3 energy=0.2584585308 pbc="T T T"
O        0.00000000       0.00000000       0.00000000
H        0.95883000       0.00000000       0.00000000
H        0.36667000       0.72285000       0.00000000
3
Lattice="15.0 0.0 0.0 0.0 15.0 0.0 0.0 0.0 15.0" Properties=species:S:1:pos:R:3 energy=0.1897294755 pbc="T T T"
O        0.00000000       0.00000000       0.00000000
H        0.95883000       0.00000000       0.00000000
H        0.38333000       0.75571000       0.00000000
3
Lattice="15.0 0.0 0.0 0.0 15.0 0.0 0.0 0.0 15.0" Properties=species:S:1:pos:R:3 energy=0.1207447517 pbc="T T T"
O        0.00000000       0.00000000       0.00000000
H        0.95883000       0.00000000       0.00000000
H        0.40000000       0.78856000       0.00000000
3
Lattice="15.0 0.0 0.0 0.0 15.0 0.0 0.0 0.0 15.0" Properties=species:S:1:pos:R:3 energy=0.0493582021 pbc="T T T"
O        0.00000000       0.00000000       0.00000000
H        0.95883000       0.00000000       0.00000000
H        0.41667000       0.82142000       0.00000000
3
Lattice="15.0 0.0 0.0 0.0 15.0 0.0 0.0 0.0 15.0" Properties=species:S:1:pos:R:3 energy=-0.0247722992 pbc="T T T"
O        0.00000000       0.00000000       0.00000000
H        0.95883000       0.00000000       0.00000000
H        0.43333000       0.85427000       0.00000000
3
Lattice="15.0 0.0 0.0 0.0 15.0 0.0 0.0 0.0 15.0" Properties=species:S:1:pos:R:3 energy=-0.1010904646 pbc="T T T"
O        0.00000000       0.00000000       0.00000000
H        0.95883000       0.00000000       0.00000000
H        0.45000000       0.88713000       0.00000000
3
Lattice="15.0 0.0 0.0 0.0 15.0 0.0 0.0 0.0 15.0" Properties=species:S:1:pos:R:3 energy=-0.1784525769 pbc="T T T"
O        0.00000000       0.00000000       0.00000000
H        0.95883000       0.00000000       0.00000000
H        0.46667000       0.91999000       0.00000000
3
Lattice="15.0 0.0 0.0 0.0 15.0 0.0 0.0 0.0 15.0" Properties=species:S:1:pos:R:3 energy=-0.2556076714 pbc="T T T"
O        0.00000000       0.00000000       0.00000000
H        0.95883000       0.00000000       0.00000000
H        0.48333000       0.95284000       0.00000000
3
Lattice="15.0 0.0 0.0 0.0 15.0 0.0 0.0 0.0 15.0" Properties=species:S:1:pos:R:3 energy=-0.3312571828 pbc="T T T"
O        0.00000000       0.00000000       0.00000000
H        0.95883000       0.00000000       0.00000000
H        0.50000000       0.98570000       0.00000000
3
Lattice="15.0 0.0 0.0 0.0 15.0 0.0 0.0 0.0 15.0" Properties=species:S:1:pos:R:3 energy=-0.4043321724 pbc="T T T"
O        0.00000000       0.00000000       0.00000000
H        0.95883000       0.00000000       0.00000000
H        0.51667000       1.01856000       0.00000000
3
Lattice="15.0 0.0 0.0 0.0 15.0 0.0 0.0 0.0 15.0" Properties=species:S:1:pos:R:3 energy=-0.4737890675 pbc="T T T"
O        0.00000000       0.00000000       0.00000000
H        0.95883000       0.00000000       0.00000000
H        0.53333000       1.05142000       0.00000000
3
Lattice="15.0 0.0 0.0 0.0 15.0 0.0 0.0 0.0 15.0" Properties=species:S:1:pos:R:3 energy=-0.5389678534 pbc="T T T"
O        0.00000000       0.00000000       0.00000000
H        0.95883000       0.00000000       0.00000000
H        0.55000000       1.08427000       0.00000000
3
Lattice="15.0 0.0 0.0 0.0 15.0 0.0 0.0 0.0 15.0" Properties=species:S:1:pos:R:3 energy=-0.5992606009 pbc="T T T"
O        0.00000000       0.00000000       0.00000000
H        0.95883000       0.00000000       0.00000000
H        0.56667000       1.11713000       0.00000000
3
Lattice="15.0 0.0 0.0 0.0 15.0 0.0 0.0 0.0 15.0" Properties=species:S:1:pos:R:3 energy=-0.6544209596 pbc="T T T"
O        0.00000000       0.00000000       0.00000000
H        0.95883000       0.00000000       0.00000000
H        0.58333000       1.14998000       0.00000000
3
Lattice="15.0 0.0 0.0 0.0 15.0 0.0 0.0 0.0 15.0" Properties=species:S:1:pos:R:3 energy=-0.7041842357 pbc="T T T"
O        0.00000000       0.00000000       0.00000000
H        0.95883000       0.00000000       0.00000000
H        0.60000000       1.18285000       0.00000000
3
Lattice="15.0 0.0 0.0 0.0 15.0 0.0 0.0 0.0 15.0" Properties=species:S:1:pos:R:3 energy=-0.7486062273 pbc="T T T"
O        0.00000000       0.00000000       0.00000000
H        0.95883000       0.00000000       0.00000000
H        0.61667000       1.21570000       0.00000000
3
Lattice="15.0 0.0 0.0 0.0 15.0 0.0 0.0 0.0 15.0" Properties=species:S:1:pos:R:3 energy=-0.7877085621 pbc="T T T"
O        0.00000000       0.00000000       0.00000000
H        0.95883000       0.00000000       0.00000000
H        0.63333000       1.24855000       0.00000000
3
Lattice="15.0 0.0 0.0 0.0 15.0 0.0 0.0 0.0 15.0" Properties=species:S:1:pos:R:3 energy=0.4911125645 pbc="T T T"
O        0.00000000       0.00000000       0.00000000
H        0.95883000       0.00000000       0.00000000
H        0.28240000       0.64051000       0.00000000
3
Lattice="15.0 0.0 0.0 0.0 15.0 0.0 0.0 0.0 15.0" Properties=species:S:1:pos:R:3 energy=0.3813439351 pbc="T T T"
O        0.00000000       0.00000000       0.00000000
H        0.95883000       0.00000000       0.00000000
H        0.29727000       0.67421000       0.00000000
3
Lattice="15.0 0.0 0.0 0.0 15.0 0.0 0.0 0.0 15.0" Properties=species:S:1:pos:R:3 energy=0.3010603580 pbc="T T T"
O        0.00000000       0.00000000       0.00000000
H        0.95883000       0.00000000       0.00000000
H        0.31213000       0.70792000       0.00000000
3
Lattice="15.0 0.0 0.0 0.0 15.0 0.0 0.0 0.0 15.0" Properties=species:S:1:pos:R:3 energy=0.2349902798 pbc="T T T"
O        0.00000000       0.00000000       0.00000000
H        0.95883000       0.00000000       0.00000000
H        0.32700000       0.74164000       0.00000000
3
Lattice="15.0 0.0 0.0 0.0 15.0 0.0 0.0 0.0 15.0" Properties=species:S:1:pos:R:3 energy=0.1742092293 pbc="T T T"
O        0.00000000       0.00000000       0.00000000
H        0.95883000       0.00000000       0.00000000
H        0.34186000       0.77535000       0.00000000
3
Lattice="15.0 0.0 0.0 0.0 15.0 0.0 0.0 0.0 15.0" Properties=species:S:1:pos:R:3 energy=0.1137416537 pbc="T T T"
O        0.00000000       0.00000000       0.00000000
H        0.95883000       0.00000000       0.00000000
H        0.35672000       0.80906000       0.00000000
3
Lattice="15.0 0.0 0.0 0.0 15.0 0.0 0.0 0.0 15.0" Properties=species:S:1:pos:R:3 energy=0.0513828169 pbc="T T T"
O        0.00000000       0.00000000       0.00000000
H        0.95883000       0.00000000       0.00000000
H        0.37158000       0.84277000       0.00000000
3
Lattice="15.0 0.0 0.0 0.0 15.0 0.0 0.0 0.0 15.0" Properties=species:S:1:pos:R:3 energy=-0.0134045998 pbc="T T T"
O        0.00000000       0.00000000       0.00000000
H        0.95883000       0.00000000       0.00000000
H        0.38645000       0.87648000       0.00000000
3
Lattice="15.0 0.0 0.0 0.0 15.0 0.0 0.0 0.0 15.0" Properties=species:S:1:pos:R:3 energy=-0.0801547873 pbc="T T T"
O        0.00000000       0.00000000       0.00000000
H        0.95883000       0.00000000       0.00000000
H        0.40131000       0.91020000       0.00000000
3
Lattice="15.0 0.0 0.0 0.0 15.0 0.0 0.0 0.0 15.0" Properties=species:S:1:pos:R:3 energy=-0.1478929692 pbc="T T T"
O        0.00000000       0.00000000       0.00000000
H        0.95883000       0.00000000       0.00000000
H        0.41618000       0.94390000       0.00000000
3
Lattice="15.0 0.0 0.0 0.0 15.0 0.0 0.0 0.0 15.0" Properties=species:S:1:pos:R:3 energy=-0.2154426936 pbc="T T T"
O        0.00000000       0.00000000       0.00000000
H        0.95883000       0.00000000       0.00000000
H        0.43104000       0.97761000       0.00000000
3
Lattice="15.0 0.0 0.0 0.0 15.0 0.0 0.0 0.0 15.0" Properties=species:S:1:pos:R:3 energy=-0.2816326821 pbc="T T T"
O        0.00000000       0.00000000       0.00000000
H        0.95883000       0.00000000       0.00000000
H        0.44590000       1.01132000       0.00000000
3
Lattice="15.0 0.0 0.0 0.0 15.0 0.0 0.0 0.0 15.0" Properties=species:S:1:pos:R:3 energy=-0.3454090144 pbc="T T T"
O        0.00000000       0.00000000       0.00000000
H        0.95883000       0.00000000       0.00000000
H        0.46077000       1.04504000       0.00000000
3
Lattice="15.0 0.0 0.0 0.0 15.0 0.0 0.0 0.0 15.0" Properties=species:S:1:pos:R:3 energy=-0.4058557644 pbc="T T T"
O        0.00000000       0.00000000       0.00000000
H        0.95883000       0.00000000       0.00000000
H        0.47563000       1.07875000       0.00000000
3
Lattice="15.0 0.0 0.0 0.0 15.0 0.0 0.0 0.0 15.0" Properties=species:S:1:pos:R:3 energy=-0.4622848858 pbc="T T T"
O        0.00000000       0.00000000       0.00000000
H        0.95883000       0.00000000       0.00000000
H        0.49049000       1.11246000       0.00000000
3
Lattice="15.0 0.0 0.0 0.0 15.0 0.0 0.0 0.0 15.0" Properties=species:S:1:pos:R:3 energy=-0.5141898544 pbc="T T T"
O        0.00000000       0.00000000       0.00000000
H        0.95883000       0.00000000       0.00000000
H        0.50535000       1.14617000       0.00000000
3
Lattice="15.0 0.0 0.0 0.0 15.0 0.0 0.0 0.0 15.0" Properties=species:S:1:pos:R:3 energy=-0.5612371433 pbc="T T T"
O        0.00000000       0.00000000       0.00000000
H        0.95883000       0.00000000       0.00000000
H        0.52022000       1.17988000       0.00000000
3
Lattice="15.0 0.0 0.0 0.0 15.0 0.0 0.0 0.0 15.0" Properties=species:S:1:pos:R:3 energy=-0.6032786467 pbc="T T T"
O        0.00000000       0.00000000       0.00000000
H        0.95883000       0.00000000       0.00000000
H        0.53508000       1.21359000       0.00000000
3
Lattice="15.0 0.0 0.0 0.0 15.0 0.0 0.0 0.0 15.0" Properties=species:S:1:pos:R:3 energy=-0.6403334207 pbc="T T T"
O        0.00000000       0.00000000       0.00000000
H        0.95883000       0.00000000       0.00000000
H        0.54995000       1.24730000       0.00000000
3
Lattice="15.0 0.0 0.0 0.0 15.0 0.0 0.0 0.0 15.0" Properties=species:S:1:pos:R:3 energy=-0.6723950248 pbc="T T T"
O        0.00000000       0.00000000       0.00000000
H        0.95883000       0.00000000       0.00000000
H        0.56481000       1.28101000       0.00000000
3
Lattice="15.0 0.0 0.0 0.0 15.0 0.0 0.0 0.0 15.0" Properties=species:S:1:pos:R:3 energy=0.4506658940 pbc="T T T"
O        0.00000000       0.00000000       0.00000000
H        0.95883000       0.00000000       0.00000000
H        0.24731000       0.65486000       0.00000000
3
Lattice="15.0 0.0 0.0 0.0 15.0 0.0 0.0 0.0 15.0" Properties=species:S:1:pos:R:3 energy=0.3460808157 pbc="T T T"
O        0.00000000       0.00000000       0.00000000
H        0.95883000       0.00000000       0.00000000
H        0.26033000       0.68932000       0.00000000
3
Lattice="15.0 0.0 0.0 0.0 15.0 0.0 0.0 0.0 15.0" Properties=species:S:1:pos:R:3 energy=0.2719426990 pbc="T T T"
O        0.00000000       0.00000000       0.00000000
H        0.95883000       0.00000000       0.00000000
H        0.27335000       0.72378000       0.00000000
3
Lattice="15.0 0.0 0.0 0.0 15.0 0.0 0.0 0.0 15.0" Properties=species:S:1:pos:R:3 energy=0.2125961768 pbc="T T T"
O        0.00000000       0.00000000       0.00000000
H        0.95883000       0.00000000       0.00000000
H        0.28637000       0.75826000       0.00000000
3
Lattice="15.0 0.0 0.0 0.0 15.0 0.0 0.0 0.0 15.0" Properties=species:S:1:pos:R:3 energy=0.1592507705 pbc="T T T"
O        0.00000000       0.00000000       0.00000000
H        0.95883000       0.00000000       0.00000000
H        0.29938000       0.79272000       0.00000000
3
Lattice="15.0 0.0 0.0 0.0 15.0 0.0 0.0 0.0 15.0" Properties=species:S:1:pos:R:3 energy=0.1066160915 pbc="T T T"
O        0.00000000       0.00000000       0.00000000
H        0.95883000       0.00000000       0.00000000
H        0.31240000       0.82719000       0.00000000
3
Lattice="15.0 0.0 0.0 0.0 15.0 0.0 0.0 0.0 15.0" Properties=species:S:1:pos:R:3 energy=0.0524343140 pbc="T T T"
O        0.00000000       0.00000000       0.00000000
H        0.95883000       0.00000000       0.00000000
H        0.32541000       0.86165000       0.00000000
3
Lattice="15.0 0.0 0.0 0.0 15.0 0.0 0.0 0.0 15.0" Properties=species:S:1:pos:R:3 energy=-0.0039042137 pbc="T T T"
O        0.00000000       0.00000000       0.00000000
H        0.95883000       0.00000000       0.00000000
H        0.33843000       0.89611000       0.00000000
3
Lattice="15.0 0.0 0.0 0.0 15.0 0.0 0.0 0.0 15.0" Properties=species:S:1:pos:R:3 energy=-0.0620889000 pbc="T T T"
O        0.00000000       0.00000000       0.00000000
H        0.95883000       0.00000000       0.00000000
H        0.35145000       0.93059000       0.00000000
3
Lattice="15.0 0.0 0.0 0.0 15.0 0.0 0.0 0.0 15.0" Properties=species:S:1:pos:R:3 energy=-0.1212050584 pbc="T T T"
O        0.00000000       0.00000000       0.00000000
H        0.95883000       0.00000000       0.00000000
H        0.36446000       0.96505000       0.00000000
3
Lattice="15.0 0.0 0.0 0.0 15.0 0.0 0.0 0.0 15.0" Properties=species:S:1:pos:R:3 energy=-0.1801679947 pbc="T T T"
O        0.00000000       0.00000000       0.00000000
H        0.95883000       0.00000000       0.00000000
H        0.37748000       0.99952000       0.00000000
3
Lattice="15.0 0.0 0.0 0.0 15.0 0.0 0.0 0.0 15.0" Properties=species:S:1:pos:R:3 energy=-0.2379098423 pbc="T T T"
O        0.00000000       0.00000000       0.00000000
H        0.95883000       0.00000000       0.00000000
H        0.39050000       1.03398000       0.00000000
3
Lattice="15.0 0.0 0.0 0.0 15.0 0.0 0.0 0.0 15.0" Properties=species:S:1:pos:R:3 energy=-0.2934270367 pbc="T T T"
O        0.00000000       0.00000000       0.00000000
H        0.95883000       0.00000000       0.00000000
H        0.40351000       1.06845000       0.00000000
3
Lattice="15.0 0.0 0.0 0.0 15.0 0.0 0.0 0.0 15.0" Properties=species:S:1:pos:R:3 energy=-0.3457816848 pbc="T T T"
O        0.00000000       0.00000000       0.00000000
H        0.95883000       0.00000000       0.00000000
H        0.41653000       1.10292000       0.00000000
3
Lattice="15.0 0.0 0.0 0.0 15.0 0.0 0.0 0.0 15.0" Properties=species:S:1:pos:R:3 energy=-0.3944083342 pbc="T T T"
O        0.00000000       0.00000000       0.00000000
H        0.95883000       0.00000000       0.00000000
H        0.42955000       1.13738000       0.00000000
3
Lattice="15.0 0.0 0.0 0.0 15.0 0.0 0.0 0.0 15.0" Properties=species:S:1:pos:R:3 energy=-0.4387393619 pbc="T T T"
O        0.00000000       0.00000000       0.00000000
H        0.95883000       0.00000000       0.00000000
H        0.44256000       1.17185000       0.00000000
3
Lattice="15.0 0.0 0.0 0.0 15.0 0.0 0.0 0.0 15.0" Properties=species:S:1:pos:R:3 energy=-0.4785420782 pbc="T T T"
O        0.00000000       0.00000000       0.00000000
H        0.95883000       0.00000000       0.00000000
H        0.45558000       1.20631000       0.00000000
3
Lattice="15.0 0.0 0.0 0.0 15.0 0.0 0.0 0.0 15.0" Properties=species:S:1:pos:R:3 energy=-0.5136265692 pbc="T T T"
O        0.00000000       0.00000000       0.00000000
H        0.95883000       0.00000000       0.00000000
H        0.46860000       1.24078000       0.00000000
3
Lattice="15.0 0.0 0.0 0.0 15.0 0.0 0.0 0.0 15.0" Properties=species:S:1:pos:R:3 energy=-0.5439060301 pbc="T T T"
O        0.00000000       0.00000000       0.00000000
H        0.95883000       0.00000000       0.00000000
H        0.48161000       1.27525000       0.00000000
3
Lattice="15.0 0.0 0.0 0.0 15.0 0.0 0.0 0.0 15.0" Properties=species:S:1:pos:R:3 energy=-0.5695684270 pbc="T T T"
O        0.00000000       0.00000000       0.00000000
H        0.95883000       0.00000000       0.00000000
H        0.49463000       1.30971000       0.00000000
3
Lattice="15.0 0.0 0.0 0.0 15.0 0.0 0.0 0.0 15.0" Properties=species:S:1:pos:R:3 energy=0.4116471170 pbc="T T T"
O        0.00000000       0.00000000       0.00000000
H        0.95883000       0.00000000       0.00000000
H        0.21150000       0.66728000       0.00000000
3
Lattice="15.0 0.0 0.0 0.0 15.0 0.0 0.0 0.0 15.0" Properties=species:S:1:pos:R:3 energy=0.3120395218 pbc="T T T"
O        0.00000000       0.00000000       0.00000000
H        0.95883000       0.00000000       0.00000000
H        0.22263000       0.70240000       0.00000000
3
Lattice="15.0 0.0 0.0 0.0 15.0 0.0 0.0 0.0 15.0" Properties=species:S:1:pos:R:3 energy=0.2436008244 pbc="T T T"
O        0.00000000       0.00000000       0.00000000
H        0.95883000       0.00000000       0.00000000
H        0.23376000       0.73752000       0.00000000
3
Lattice="15.0 0.0 0.0 0.0 15.0 0.0 0.0 0.0 15.0" Properties=species:S:1:pos:R:3 energy=0.1907066990 pbc="T T T"
O        0.00000000       0.00000000       0.00000000
H        0.95883000       0.00000000       0.00000000
H        0.24489000       0.77265000       0.00000000
3
Lattice="15.0 0.0 0.0 0.0 15.0 0.0 0.0 0.0 15.0" Properties=species:S:1:pos:R:3 energy=0.1440998419 pbc="T T T"
O        0.00000000       0.00000000       0.00000000
H        0.95883000       0.00000000       0.00000000
H        0.25602000       0.80777000       0.00000000
3
Lattice="15.0 0.0 0.0 0.0 15.0 0.0 0.0 0.0 15.0" Properties=species:S:1:pos:R:3 energy=0.0986994444 pbc="T T T"
O        0.00000000       0.00000000       0.00000000
H        0.95883000       0.00000000       0.00000000
H        0.26716000       0.84289000       0.00000000
3
Lattice="15.0 0.0 0.0 0.0 15.0 0.0 0.0 0.0 15.0" Properties=species:S:1:pos:R:3 energy=0.0520044102 pbc="T T T"
O        0.00000000       0.00000000       0.00000000
H        0.95883000       0.00000000       0.00000000
H        0.27829000       0.87800000       0.00000000
3
Lattice="15.0 0.0 0.0 0.0 15.0 0.0 0.0 0.0 15.0" Properties=species:S:1:pos:R:3 energy=0.0033167176 pbc="T T T"
O        0.00000000       0.00000000       0.00000000
H        0.95883000       0.00000000       0.00000000
H        0.28942000       0.91312000       0.00000000
3
Lattice="15.0 0.0 0.0 0.0 15.0 0.0 0.0 0.0 15.0" Properties=species:S:1:pos:R:3 energy=-0.0471077750 pbc="T T T"
O        0.00000000       0.00000000       0.00000000
H        0.95883000       0.00000000       0.00000000
H        0.30055000       0.94825000       0.00000000
3
Lattice="15.0 0.0 0.0 0.0 15.0 0.0 0.0 0.0 15.0" Properties=species:S:1:pos:R:3 energy=-0.0984508732 pbc="T T T"
O        0.00000000       0.00000000       0.00000000
H        0.95883000       0.00000000       0.00000000
H        0.31168000       0.98337000       0.00000000
3
Lattice="15.0 0.0 0.0 0.0 15.0 0.0 0.0 0.0 15.0" Properties=species:S:1:pos:R:3 energy=-0.1497069040 pbc="T T T"
O        0.00000000       0.00000000       0.00000000
H        0.95883000       0.00000000       0.00000000
H        0.32281000       1.01849000       0.00000000
3
Lattice="15.0 0.0 0.0 0.0 15.0 0.0 0.0 0.0 15.0" Properties=species:S:1:pos:R:3 energy=-0.1998631980 pbc="T T T"
O        0.00000000       0.00000000       0.00000000
H        0.95883000       0.00000000       0.00000000
H        0.33394000       1.05360000       0.00000000
3
Lattice="15.0 0.0 0.0 0.0 15.0 0.0 0.0 0.0 15.0" Properties=species:S:1:pos:R:3 energy=-0.2479006289 pbc="T T T"
O        0.00000000       0.00000000       0.00000000
H        0.95883000       0.00000000       0.00000000
H        0.34508000       1.08873000       0.00000000
3
Lattice="15.0 0.0 0.0 0.0 15.0 0.0 0.0 0.0 15.0" Properties=species:S:1:pos:R:3 energy=-0.2930144711 pbc="T T T"
O        0.00000000       0.00000000       0.00000000
H        0.95883000       0.00000000       0.00000000
H        0.35621000       1.12385000       0.00000000
3
Lattice="15.0 0.0 0.0 0.0 15.0 0.0 0.0 0.0 15.0" Properties=species:S:1:pos:R:3 energy=-0.3345694612 pbc="T T T"
O        0.00000000       0.00000000       0.00000000
H        0.95883000       0.00000000       0.00000000
H        0.36734000       1.15897000       0.00000000
3
Lattice="15.0 0.0 0.0 0.0 15.0 0.0 0.0 0.0 15.0" Properties=species:S:1:pos:R:3 energy=-0.3720980423 pbc="T T T"
O        0.00000000       0.00000000       0.00000000
H        0.95883000       0.00000000       0.00000000
H        0.37847000       1.19409000       0.00000000
3
Lattice="15.0 0.0 0.0 0.0 15.0 0.0 0.0 0.0 15.0" Properties=species:S:1:pos:R:3 energy=-0.4053488883 pbc="T T T"
O        0.00000000       0.00000000       0.00000000
H        0.95883000       0.00000000       0.00000000
H        0.38960000       1.22920000       0.00000000
3
Lattice="15.0 0.0 0.0 0.0 15.0 0.0 0.0 0.0 15.0" Properties=species:S:1:pos:R:3 energy=-0.4340731248 pbc="T T T"
O        0.00000000       0.00000000       0.00000000
H        0.95883000       0.00000000       0.00000000
H        0.40073000       1.26433000       0.00000000
3
Lattice="15.0 0.0 0.0 0.0 15.0 0.0 0.0 0.0 15.0" Properties=species:S:1:pos:R:3 energy=-0.4582792374 pbc="T T T"
O        0.00000000       0.00000000       0.00000000
H        0.95883000       0.00000000       0.00000000
H        0.41187000       1.29945000       0.00000000
3
Lattice="15.0 0.0 0.0 0.0 15.0 0.0 0.0 0.0 15.0" Properties=species:S:1:pos:R:3 energy=-0.4780736385 pbc="T T T"
O        0.00000000       0.00000000       0.00000000
H        0.95883000       0.00000000       0.00000000
H        0.42300000       1.33457000       0.00000000
3
Lattice="15.0 0.0 0.0 0.0 15.0 0.0 0.0 0.0 15.0" Properties=species:S:1:pos:R:3 energy=0.3729987782 pbc="T T T"
O        0.00000000       0.00000000       0.00000000
H        0.95883000       0.00000000       0.00000000
H        0.17506000       0.67776000       0.00000000
3
Lattice="15.0 0.0 0.0 0.0 15.0 0.0 0.0 0.0 15.0" Properties=species:S:1:pos:R:3 energy=0.2786896443 pbc="T T T"
O        0.00000000       0.00000000       0.00000000
H        0.95883000       0.00000000       0.00000000
H        0.18428000       0.71343000       0.00000000
3
Lattice="15.0 0.0 0.0 0.0 15.0 0.0 0.0 0.0 15.0" Properties=species:S:1:pos:R:3 energy=0.2158033730 pbc="T T T"
O        0.00000000       0.00000000       0.00000000
H        0.95883000       0.00000000       0.00000000
H        0.19349000       0.74909000       0.00000000
3
Lattice="15.0 0.0 0.0 0.0 15.0 0.0 0.0 0.0 15.0" Properties=species:S:1:pos:R:3 energy=0.1688869891 pbc="T T T"
O        0.00000000       0.00000000       0.00000000
H        0.95883000       0.00000000       0.00000000
H        0.20270000       0.78477000       0.00000000
3
Lattice="15.0 0.0 0.0 0.0 15.0 0.0 0.0 0.0 15.0" Properties=species:S:1:pos:R:3 energy=0.1286017230 pbc="T T T"
O        0.00000000       0.00000000       0.00000000
H        0.95883000       0.00000000       0.00000000
H        0.21192000       0.82044000       0.00000000
3
Lattice="15.0 0.0 0.0 0.0 15.0 0.0 0.0 0.0 15.0" Properties=species:S:1:pos:R:3 energy=0.0898041651 pbc="T T T"
O        0.00000000       0.00000000       0.00000000
H        0.95883000       0.00000000       0.00000000
H        0.22113000       0.85611000       0.00000000
3
Lattice="15.0 0.0 0.0 0.0 15.0 0.0 0.0 0.0 15.0" Properties=species:S:1:pos:R:3 energy=0.0499630238 pbc="T T T"
O        0.00000000       0.00000000       0.00000000
H        0.95883000       0.00000000       0.00000000
H        0.23034000       0.89178000       0.00000000
3
Lattice="15.0 0.0 0.0 0.0 15.0 0.0 0.0 0.0 15.0" Properties=species:S:1:pos:R:3 energy=0.0082615263 pbc="T T T"
O        0.00000000       0.00000000       0.00000000
H        0.95883000       0.00000000       0.00000000
H        0.23956000       0.92745000       0.00000000
3
Lattice="15.0 0.0 0.0 0.0 15.0 0.0 0.0 0.0 15.0" Properties=species:S:1:pos:R:3 energy=-0.0351140958 pbc="T T T"