       3
Lattice="15.0 0.0 0.0 0.0 15.0 0.0 0.0 0.0 15.0" Properties=species:S:1:pos:R:3:forces:R:3 energy=        1.4123013748 pbc="T T T"
       O    -0.0230965900    -0.0262236500     0.0000000000      5.672594467      6.560968672     -0.000000000
       H     1.0971944000     0.2598305400     0.0000000000     -4.028074354     -2.611594487     -0.000000000
       H    -0.0093140700     1.0853046000     0.0000000000     -1.644520113     -3.949374186     -0.000000000
