       3
Lattice="15.0 0.0 0.0 0.0 15.0 0.0 0.0 0.0 15.0" Properties=species:S:1:pos:R:3:forces:R:3 energy=        1.4210079217 pbc="T T T"
       O     0.0214343500     0.0057864800     0.0000000000     -8.983821009      4.327104643     -0.000000000
       H     0.8788364600    -0.2202716900     0.0000000000      4.963597214      0.624185107     -0.000000000
       H    -0.4977071100     1.0573844400     0.0000000000      4.020223795     -4.951289749     -0.000000000
