       3
Lattice="15.0 0.0 0.0 0.0 15.0 0.0 0.0 0.0 15.0" Properties=species:S:1:pos:R:3:forces:R:3 energy=        2.3911916983 pbc="T T T"
       O     0.0005846300     0.0114039300     0.0000000000      1.856828902      0.992312900     -0.000000000
       H     1.2390005000    -0.2606961900     0.0000000000     -5.708411648      2.758118794     -0.000000000
       H    -0.5269721200     1.0086573900     0.0000000000      3.851582694     -3.750431694     -0.000000000
