       3
Lattice="15.0 0.0 0.0 0.0 15.0 0.0 0.0 0.0 15.0" Properties=species:S:1:pos:R:3:forces:R:3 energy=        0.2901885578 pbc="T T T"
       O     0.0117187700     0.0141612200     0.0000000000     -2.841137646     -2.446800889     -0.000000000
       H     0.9142126300    -0.1543961200     0.0000000000      2.134812439      0.922081693     -0.000000000
       H    -0.3788885200     0.8585951500     0.0000000000      0.706325155      1.524719196     -0.000000000
