       3
Lattice="15.0 0.0 0.0 0.0 15.0 0.0 0.0 0.0 15.0" Properties=species:S:1:pos:R:3:forces:R:3 energy=        0.6804415971 pbc="T T T"
       O     0.0059873200    -0.0075548900     0.0000000000    -10.186087002      3.187063284     -0.000000000
       H     0.8441367900     0.0390808800     0.0000000000      9.910920881      0.027089001     -0.000000000
       H    -0.2178450900     1.0097676100     0.0000000000      0.275166069     -3.214152234     -0.000000000
