       3
Lattice="15.0 0.0 0.0 0.0 15.0 0.0 0.0 0.0 15.0" Properties=species:S:1:pos:R:3:forces:R:3 energy=        1.8201447764 pbc="T T T"
       O    -0.0228336300    -0.0300734800     0.0000000000      5.609498948      7.316824559     -0.000000000
       H     1.1251875000     0.2469833100     0.0000000000     -4.543655240     -2.282502537     -0.000000000
       H    -0.0414807800     1.1592517900     0.0000000000     -1.065843708     -5.034322022     -0.000000000
