       3
Lattice="15.0 0.0 0.0 0.0 15.0 0.0 0.0 0.0 15.0" Properties=species:S:1:pos:R:3:forces:R:3 energy=        0.4315336506 pbc="T T T"
       O     0.0045843700    -0.0080299300     0.0000000000     -5.899624114      3.938307073     -0.000000000
       H     0.8903499100     0.0219820400     0.0000000000      5.102921915      0.011792165     -0.000000000
       H    -0.2417928700     1.0344058700     0.0000000000      0.796702199     -3.950099186     -0.000000000
