       3
Lattice="15.0 0.0 0.0 0.0 15.0 0.0 0.0 0.0 15.0" Properties=species:S:1:pos:R:3:forces:R:3 energy=        1.1544106505 pbc="T T T"
       O    -0.0197146300    -0.0018357900     0.0000000000      6.402359506     -2.030212869     -0.000000000
       H     1.2137582200     0.0507910300     0.0000000000     -5.863852031     -0.339946227     -0.000000000
       H    -0.1795578000     0.9072924700     0.0000000000     -0.538507424      2.370159096     -0.000000000
