       3
Lattice="15.0 0.0 0.0 0.0 15.0 0.0 0.0 0.0 15.0" Properties=species:S:1:pos:R:3:forces:R:3 energy=        1.5338567259 pbc="T T T"
       O    -0.0013388600    -0.0209525400     0.0000000000    -10.467263285      2.393470579     -0.000000000
       H     0.7895851100     0.2139450500     0.0000000000     12.834771211      0.449293805     -0.000000000
       H    -0.0470169800     1.0475327700     0.0000000000     -2.367507927     -2.842764435     -0.000000000
