       3
Lattice="15.0 0.0 0.0 0.0 15.0 0.0 0.0 0.0 15.0" Properties=species:S:1:pos:R:3:forces:R:3 energy=        1.7178014176 pbc="T T T"
       O    -0.0160092900     0.0065785800     0.0000000000      8.645146759    -14.794605909     -0.000000000
       H     1.1428441900     0.0336792900     0.0000000000     -5.446402125     -0.317337169     -0.000000000
       H    -0.1674507900     0.7908616500     0.0000000000     -3.198744634     15.111943078     -0.000000000
