       3
Lattice="15.0 0.0 0.0 0.0 15.0 0.0 0.0 0.0 15.0" Properties=species:S:1:pos:R:3:forces:R:3 energy=        1.7544901076 pbc="T T T"
       O    -0.0001080200    -0.0302621500     0.0000000000     -6.693479587      5.254884262     -0.000000000
       H     0.8413115100     0.1879438000     0.0000000000      7.344600097      0.173778991     -0.000000000
       H    -0.1182782800     1.2212847700     0.0000000000     -0.651120510     -5.428663253     -0.000000000
