       3
Lattice="15.0 0.0 0.0 0.0 15.0 0.0 0.0 0.0 15.0" Properties=species:S:1:pos:R:3:forces:R:3 energy=        0.5018457115 pbc="T T T"
       O     0.0102116800     0.0157493400     0.0000000000      0.461883526     -1.450636372     -0.000000000
       H     1.0007082500    -0.2079927700     0.0000000000     -2.602372758      2.151166155     -0.000000000
       H    -0.4414669500     0.8869878500     0.0000000000      2.140489232     -0.700529783     -0.000000000
