       3
Lattice="15.0 0.0 0.0 0.0 15.0 0.0 0.0 0.0 15.0" Properties=species:S:1:pos:R:3:forces:R:3 energy=        1.5101182502 pbc="T T T"
       O     0.0042061600     0.0112391900     0.0000000000     -1.946586979    -16.095011932     -0.000000000
       H     0.8663136600    -0.0154088000     0.0000000000      6.971217429     -0.465802917     -0.000000000
       H    -0.2117553500     0.7659816200     0.0000000000     -5.024630501     16.560814849     -0.000000000
