       3
Lattice="15.0 0.0 0.0 0.0 15.0 0.0 0.0 0.0 15.0" Properties=species:S:1:pos:R:3:forces:R:3 energy=        4.9060241086 pbc="T T T"
       O     0.0242353600     0.0002086000     0.0000000000    -46.964713072      9.476486311     -0.000000000
       H     0.6930329700    -0.0929348700     0.0000000000     44.485763248     -4.979803194     -0.000000000
       H    -0.3563544400     1.0185711200     0.0000000000      2.478949824     -4.496683117     -0.000000000
