       3
Lattice="15.0 0.0 0.0 0.0 15.0 0.0 0.0 0.0 15.0" Properties=species:S:1:pos:R:3:forces:R:3 energy=        1.6943614154 pbc="T T T"
       O    -0.0063497400    -0.0252922100     0.0000000000      2.704954937      6.255686281     -0.000000000
       H     1.0588189100     0.0803070600     0.0000000000     -3.678073258     -0.454263081     -0.000000000
       H    -0.2367277500     1.2500464100     0.0000000000      0.973118320     -5.801423148     -0.000000000
