       3
Lattice="15.0 0.0 0.0 0.0 15.0 0.0 0.0 0.0 15.0" Properties=species:S:1:pos:R:3:forces:R:3 energy=        0.6335452659 pbc="T T T"
       O    -0.0111930700    -0.0126496700     0.0000000000      4.004633955      4.551556552     -0.000000000
       H     1.0814283200     0.0826030600     0.0000000000     -4.254062756     -0.728266805     -0.000000000
       H    -0.1824701600     1.0471040200     0.0000000000      0.249428852     -3.823289747     -0.000000000
