       3
Lattice="15.0 0.0 0.0 0.0 15.0 0.0 0.0 0.0 15.0" Properties=species:S:1:pos:R:3:forces:R:3 energy=        0.4288532257 pbc="T T T"
       O     0.0082802700     0.0012032300     0.0000000000     -2.607787555      2.949065717     -0.000000000
       H     0.9570660300    -0.1044663600     0.0000000000      0.165639697      1.019040455     -0.000000000
       H    -0.3671690100     1.0143182800     0.0000000000      2.442147858     -3.968106172     -0.000000000
