       3
Lattice="15.0 0.0 0.0 0.0 15.0 0.0 0.0 0.0 15.0" Properties=species:S:1:pos:R:3:forces:R:3 energy=        1.4873415908 pbc="T T T"
       O     0.0039164500    -0.0105859500     0.0000000000    -15.960974347      0.318827947     -0.000000000
       H     0.7805154300     0.1235565500     0.0000000000     17.609890123      0.775932304     -0.000000000
       H    -0.1213553300     0.9733963200     0.0000000000     -1.648915776     -1.094760251     -0.000000000
