       3
Lattice="15.0 0.0 0.0 0.0 15.0 0.0 0.0 0.0 15.0" Properties=species:S:1:pos:R:3:forces:R:3 energy=        2.0460435504 pbc="T T T"
       O    -0.0294781200    -0.0212459500     0.0000000000      5.941850441      5.674409358     -0.000000000
       H     1.2744744600     0.1851296900     0.0000000000     -5.461218937     -1.451466170     -0.000000000
       H    -0.0853166700     1.0810069100     0.0000000000     -0.480631505     -4.222943239     -0.000000000
