       3
Lattice="15.0 0.0 0.0 0.0 15.0 0.0 0.0 0.0 15.0" Properties=species:S:1:pos:R:3:forces:R:3 energy=        1.4497621225 pbc="T T T"
       O     0.0229178100     0.0195371800     0.0000000000    -15.603203374      1.090191244     -0.000000000
       H     0.7853021000    -0.2092505200     0.0000000000     14.762775431     -2.629189685     -0.000000000
       H    -0.4277163800     0.8281290500     0.0000000000      0.840427943      1.538998441     -0.000000000
