       3
Lattice="15.0 0.0 0.0 0.0 15.0 0.0 0.0 0.0 15.0" Properties=species:S:1:pos:R:3:forces:R:3 energy=        1.9576631184 pbc="T T T"
       O    -0.0107544100    -0.0336805300     0.0000000000      3.316601282      7.029011279     -0.000000000
       H     1.0399146800     0.1757012200     0.0000000000     -3.346328391     -1.368448552     -0.000000000
       H    -0.1479156400     1.2877805300     0.0000000000      0.029727109     -5.660562727     -0.000000000
