       3
Lattice="15.0 0.0 0.0 0.0 15.0 0.0 0.0 0.0 15.0" Properties=species:S:1:pos:R:3:forces:R:3 energy=        0.6681206707 pbc="T T T"
       O    -0.0015505200    -0.0145451800     0.0000000000     -6.032045451      3.014645796     -0.000000000
       H     0.8516887800     0.1481390800     0.0000000000      7.461114577     -0.592052832     -0.000000000
       H    -0.1057632800     1.0116497700     0.0000000000     -1.429069125     -2.422592964     -0.000000000
