       3
Lattice="15.0 0.0 0.0 0.0 15.0 0.0 0.0 0.0 15.0" Properties=species:S:1:pos:R:3:forces:R:3 energy=        1.2918877264 pbc="T T T"
       O    -0.0029293800     0.0058729800     0.0000000000      3.069396693      1.175383399     -0.000000000
       H     1.1739927500    -0.1494816500     0.0000000000     -5.705206509      1.894539033     -0.000000000
       H    -0.4061916400     0.9852222700     0.0000000000      2.635809816     -3.069922381     -0.000000000
