       3
Lattice="15.0 0.0 0.0 0.0 15.0 0.0 0.0 0.0 15.0" Properties=species:S:1:pos:R:3:forces:R:3 energy=        0.7311935559 pbc="T T T"
       O    -0.0011527800    -0.0146611300     0.0000000000     -6.728319697      2.921292493     -0.000000000
       H     0.8444709500     0.1492074800     0.0000000000      8.189069919     -0.485956673     -0.000000000
       H    -0.1048578700     1.0124215500     0.0000000000     -1.460750222     -2.435335820     -0.000000000
