       3
Lattice="15.0 0.0 0.0 0.0 15.0 0.0 0.0 0.0 15.0" Properties=species:S:1:pos:R:3:forces:R:3 energy=        0.9794001044 pbc="T T T"
       O    -0.0224403100    -0.0100888800     0.0000000000      6.269552246     -0.543943870     -0.000000000
       H     1.1323309400     0.1736179000     0.0000000000     -4.650423280     -1.967013323     -0.000000000
       H    -0.0548686400     0.9154472100     0.0000000000     -1.619128966      2.510957193     -0.000000000
