       3
Lattice="15.0 0.0 0.0 0.0 15.0 0.0 0.0 0.0 15.0" Properties=species:S:1:pos:R:3:forces:R:3 energy=        0.5313150602 pbc="T T T"
       O     0.0049183500     0.0052972900     0.0000000000      0.755804619      1.525133812     -0.000000000
       H     1.0341651000    -0.1358035300     0.0000000000     -3.278492733      1.627623072     -0.000000000
       H    -0.3909127300     0.9806802000     0.0000000000      2.522688166     -3.152756885     -0.000000000
