       3
Lattice="15.0 0.0 0.0 0.0 15.0 0.0 0.0 0.0 15.0" Properties=species:S:1:pos:R:3:forces:R:3 energy=        0.5838291956 pbc="T T T"
       O     0.0068752800     0.0190548600     0.0000000000      3.521769035     -6.137591651     -0.000000000
       H     1.0150052900    -0.1883926200     0.0000000000     -3.227575559      2.080597567     -0.000000000
       H    -0.4028124500     0.8149266000     0.0000000000     -0.294193476      4.056994084     -0.000000000
