       3
Lattice="15.0 0.0 0.0 0.0 15.0 0.0 0.0 0.0 15.0" Properties=species:S:1:pos:R:3:forces:R:3 energy=        0.6682431736 pbc="T T T"
       O     0.0087196900     0.0161316600     0.0000000000     -0.288706842     -9.268037469     -0.000000000
       H     0.9048159200    -0.1163475400     0.0000000000      2.898771419      0.539781715     -0.000000000
       H    -0.3218933200     0.7892740600     0.0000000000     -2.610064577      8.728255754     -0.000000000
