       3
Lattice="15.0 0.0 0.0 0.0 15.0 0.0 0.0 0.0 15.0" Properties=species:S:1:pos:R:3:forces:R:3 energy=        1.5181559929 pbc="T T T"
       O     0.0019168800     0.0214411100     0.0000000000      4.240309610     -4.009898857     -0.000000000
       H     1.1687108000    -0.2541602300     0.0000000000     -5.808257915      2.922722182     -0.000000000
       H    -0.4778262000     0.8428236300     0.0000000000      1.567948254      1.087176675     -0.000000000
