       3
Lattice="15.0 0.0 0.0 0.0 15.0 0.0 0.0 0.0 15.0" Properties=species:S:1:pos:R:3:forces:R:3 energy=        3.0300460172 pbc="T T T"
       O     0.0245000200     0.0056104900     0.0000000000    -31.521421643      8.456823340     -0.000000000
       H     0.7365048100    -0.1469746400     0.0000000000     28.553002607     -4.443477609     -0.000000000
       H    -0.4040280500     0.9868794800     0.0000000000      2.968419088     -4.013345731     -0.000000000
