       3
Lattice="15.0 0.0 0.0 0.0 15.0 0.0 0.0 0.0 15.0" Properties=species:S:1:pos:R:3:forces:R:3 energy=        0.5599293346 pbc="T T T"
       O     0.0140802100     0.0218484700     0.0000000000      0.257332272     -3.713792737     -0.000000000
       H     0.9575940800    -0.2414075400     0.0000000000     -1.282995738      2.060047398     -0.000000000
       H    -0.4597500300     0.8236049400     0.0000000000      1.025663517      1.653745390     -0.000000000
