       3
Lattice="15.0 0.0 0.0 0.0 15.0 0.0 0.0 0.0 15.0" Properties=species:S:1:pos:R:3:forces:R:3 energy=        1.7248336615 pbc="T T T"
       O     0.0001353000    -0.0298280200     0.0000000000     -2.305809701      6.036975133     -0.000000000
       H     0.9246424900     0.1188688300     0.0000000000      1.791036501     -0.264466213     -0.000000000
       H    -0.2054725900     1.2834706000     0.0000000000      0.514773200     -5.772508868     -0.000000000
