       3
Lattice="15.0 0.0 0.0 0.0 15.0 0.0 0.0 0.0 15.0" Properties=species:S:1:pos:R:3:forces:R:3 energy=        2.0798603534 pbc="T T T"
       O    -0.0050771000     0.0167423800     0.0000000000     11.094852276    -22.333597437     -0.000000000
       H     1.0588783100    -0.0678734200     0.0000000000     -4.363266403      0.901685482     -0.000000000
       H    -0.2569894500     0.7311076900     0.0000000000     -6.731585873     21.431911956     -0.000000000
