       3
Lattice="15.0 0.0 0.0 0.0 15.0 0.0 0.0 0.0 15.0" Properties=species:S:1:pos:R:3:forces:R:3 energy=        1.8767294577 pbc="T T T"
       O    -0.0183820100    -0.0340830100     0.0000000000      4.759830816      7.611977211     -0.000000000
       H     1.0641061000     0.2521866900     0.0000000000     -3.783272410     -2.290373407     -0.000000000
       H    -0.0510495700     1.2176822500     0.0000000000     -0.976558406     -5.321603804     -0.000000000
