       3
Lattice="15.0 0.0 0.0 0.0 15.0 0.0 0.0 0.0 15.0" Properties=species:S:1:pos:R:3:forces:R:3 energy=        2.5047496748 pbc="T T T"
       O     0.0060322900    -0.0109147700     0.0000000000    -24.118114749     -1.587283319     -0.000000000
       H     0.7355945400     0.1333991700     0.0000000000     26.144934737      2.331608471     -0.000000000
       H    -0.1100140800     0.9687720200     0.0000000000     -2.026819988     -0.744325203     -0.000000000
