       3
Lattice="15.0 0.0 0.0 0.0 15.0 0.0 0.0 0.0 15.0" Properties=species:S:1:pos:R:3:forces:R:3 energy=        2.4837099563 pbc="T T T"
       O     0.0265724200     0.0094927400     0.0000000000    -25.237364409      8.264446523     -0.000000000
       H     0.7554481100    -0.1994577500     0.0000000000     21.687584631     -4.195122707     -0.000000000
       H    -0.4558633000     0.9777487600     0.0000000000      3.549779777     -4.069323764     -0.000000000
