       3
Lattice="15.0 0.0 0.0 0.0 15.0 0.0 0.0 0.0 15.0" Properties=species:S:1:pos:R:3:forces:R:3 energy=        1.0905345477 pbc="T T T"
       O     0.0116703700    -0.0049770800     0.0000000000     -4.598867701      4.407244320     -0.000000000
       H     0.9375165500    -0.1115911900     0.0000000000      1.644113159      0.990897198     -0.000000000
       H    -0.4014228600     1.1195291300     0.0000000000      2.954754491     -5.398141519     -0.000000000
