       3
Lattice="15.0 0.0 0.0 0.0 15.0 0.0 0.0 0.0 15.0" Properties=species:S:1:pos:R:3:forces:R:3 energy=        3.3303410416 pbc="T T T"
       O    -0.0140913200     0.0151600800     0.0000000000     13.353066978    -28.730913362     -0.000000000
       H     1.1567744400    -0.0278150400     0.0000000000     -5.871953375      0.503483840     -0.000000000
       H    -0.2118222900     0.7161617200     0.0000000000     -7.481113655     28.227429522     -0.000000000
