       3
Lattice="15.0 0.0 0.0 0.0 15.0 0.0 0.0 0.0 15.0" Properties=species:S:1:pos:R:3:forces:R:3 energy=        0.9184854766 pbc="T T T"
       O    -0.0030172200    -0.0225472400     0.0000000000     -1.769962856      5.994685402     -0.000000000
       H     0.9187625900     0.1393447100     0.0000000000      1.978150422     -0.750528198     -0.000000000
       H    -0.1495595300     1.1474431300     0.0000000000     -0.208187566     -5.244157204     -0.000000000
