       3
Lattice="15.0 0.0 0.0 0.0 15.0 0.0 0.0 0.0 15.0" Properties=species:S:1:pos:R:3:forces:R:3 energy=        1.7295997494 pbc="T T T"
       O    -0.0187681000    -0.0308406900     0.0000000000      4.973978717      7.403793913     -0.000000000
       H     1.0870875500     0.2288827200     0.0000000000     -4.163830516     -2.107302857     -0.000000000
       H    -0.0679041500     1.1895284000     0.0000000000     -0.810148201     -5.296491056     -0.000000000
