       3
Lattice="15.0 0.0 0.0 0.0 15.0 0.0 0.0 0.0 15.0" Properties=species:S:1:pos:R:3:forces:R:3 energy=        5.5771402522 pbc="T T T"
       O     0.0086661300    -0.0181350000     0.0000000000    -43.041046073     -8.222095549     -0.000000000
       H     0.6468641400     0.1925918300     0.0000000000     45.886653738     10.273283847     -0.000000000
       H    -0.0630829900     1.0241692000     0.0000000000     -2.845607665     -2.051188298     -0.000000000
