       3
Lattice="15.0 0.0 0.0 0.0 15.0 0.0 0.0 0.0 15.0" Properties=species:S:1:pos:R:3:forces:R:3 energy=        1.8724499774 pbc="T T T"
       O     0.0034906700     0.0188638900     0.0000000000      2.403345677     -1.127711524     -0.000000000
       H     1.1901449000    -0.2820788600     0.0000000000     -5.714298860      3.074434977     -0.000000000
       H    -0.5242381200     0.9116449900     0.0000000000      3.310953183     -1.946723402     -0.000000000
