       3
Lattice="15.0 0.0 0.0 0.0 15.0 0.0 0.0 0.0 15.0" Properties=species:S:1:pos:R:3:forces:R:3 energy=        2.9697172234 pbc="T T T"
       O    -0.0021938300     0.0275599600     0.0000000000     15.632877363    -23.842237512     -0.000000000
       H     1.1277979800    -0.1910104900     0.0000000000     -5.857454403      2.458550219     -0.000000000
       H    -0.3716719300     0.6825627200     0.0000000000     -9.775422960     21.383687345     -0.000000000
