3
Lattice="15.0 0.0 0.0 0.0 15.0 0.0 0.0 0.0 15.0" Properties=species:S:1:pos:R:3 energy=0.5382822088 pbc="T T T"
O        0.00000000       0.00000000       0.00000000
H        0.95883000       0.00000000       0.00000000
H        0.35000000       0.60622000       0.00000000
3
Lattice="15.0 0.0 0.0 0.0 15.0 0.0 0.0 0.0 15.0" Properties=species:S:1:pos:R:3 energy=0.4758311389 pbc="T T T"
O        0.00000000       0.00000000       0.00000000
H        0.95883000       0.00000000       0.00000000
H        0.36842000       0.63812000       0.00000000
3
Lattice="15.0 0.0 0.0 0.0 15.0 0.0 0.0 0.0 15.0" Properties=species:S:1:pos:R:3 energy=0.4088044842 pbc="T T T"
O        0.00000000       0.00000000       0.00000000
H        0.95883000       0.00000000       0.00000000
H        0.38684000       0.67003000       0.00000000
3
Lattice="15.0 0.0 0.0 0.0 15.0 0.0 0.0 0.0 15.0" Properties=species:S:1:pos:R:3 energy=0.3341079104 pbc="T T T"
O        0.00000000       0.00000000       0.00000000
H        0.95883000       0.00000000       0.00000000
H        0.40527000       0.70194000       0.00000000
3
Lattice="15.0 0.0 0.0 0.0 15.0 0.0 0.0 0.0 15.0" Properties=species:S:1:pos:R:3 energy=0.2555901638 pbc="T T T"
O        0.00000000       0.00000000       0.00000000
H        0.95883000       0.00000000       0.00000000
H        0.42369000       0.73384000       0.00000000
3
Lattice="15.0 0.0 0.0 0.0 15.0 0.0 0.0 0.0 15.0" Properties=species:S:1:pos:R:3 energy=0.1733916427 pbc="T T T"
O        0.00000000       0.00000000       0.00000000
H        0.95883000       0.00000000       0.00000000
H        0.44211000       0.76575000       0.00000000
3
Lattice="15.0 0.0 0.0 0.0 15.0 0.0 0.0 0.0 15.0" Properties=species:S:1:pos:R:3 energy=0.0885974525 pbc="T T T"
O        0.00000000       0.00000000       0.00000000
H        0.95883000       0.00000000       0.00000000
H        0.46053000       0.79765000       0.00000000
3
Lattice="15.0 0.0 0.0 0.0 15.0 0.0 0.0 0.0 15.0" Properties=species:S:1:pos:R:3 energy=0.0021820196 pbc="T T T"
O        0.00000000       0.00000000       0.00000000
H        0.95883000       0.00000000       0.00000000
H        0.47895000       0.82956000       0.00000000
3
Lattice="15.0 0.0 0.0 0.0 15.0 0.0 0.0 0.0 15.0" Properties=species:S:1:pos:R:3 energy=-0.0848282713 pbc="T T T"
O        0.00000000       0.00000000       0.00000000
H        0.95883000       0.00000000       0.00000000
H        0.49737000       0.86147000       0.00000000
3
Lattice="15.0 0.0 0.0 0.0 15.0 0.0 0.0 0.0 15.0" Properties=species:S:1:pos:R:3 energy=-0.1716168800 pbc="T T T"
O        0.00000000       0.00000000       0.00000000
H        0.95883000       0.00000000       0.00000000
H        0.51579000       0.89337000       0.00000000
3
Lattice="15.0 0.0 0.0 0.0 15.0 0.0 0.0 0.0 15.0" Properties=species:S:1:pos:R:3 energy=-0.2575035939 pbc="T T T"
O        0.00000000       0.00000000       0.00000000
H        0.95883000       0.00000000       0.00000000
H        0.53421000       0.92528000       0.00000000
3
Lattice="15.0 0.0 0.0 0.0 15.0 0.0 0.0 0.0 15.0" Properties=species:S:1:pos:R:3 energy=-0.3418695482 pbc="T T T"
O        0.00000000       0.00000000       0.00000000
H        0.95883000       0.00000000       0.00000000
H        0.55263000       0.95718000       0.00000000
3
Lattice="15.0 0.0 0.0 0.0 15.0 0.0 0.0 0.0 15.0" Properties=species:S:1:pos:R:3 energy=-0.4242247129 pbc="T T T"
O        0.00000000       0.00000000       0.00000000
H        0.95883000       0.00000000       0.00000000
H        0.57106000       0.98910000       0.00000000
3
Lattice="15.0 0.0 0.0 0.0 15.0 0.0 0.0 0.0 15.0" Properties=species:S:1:pos:R:3 energy=-0.5040513577 pbc="T T T"
O        0.00000000       0.00000000       0.00000000
H        0.95883000       0.00000000       0.00000000
H        0.58948000       1.02100000       0.00000000
3
Lattice="15.0 0.0 0.0 0.0 15.0 0.0 0.0 0.0 15.0" Properties=species:S:1:pos:R:3 energy=-0.5812178879 pbc="T T T"
O        0.00000000       0.00000000       0.00000000
H        0.95883000       0.00000000       0.00000000
H        0.60790000       1.05291000       0.00000000
3
Lattice="15.0 0.0 0.0 0.0 15.0 0.0 0.0 0.0 15.0" Properties=species:S:1:pos:R:3 energy=-0.6553337691 pbc="T T T"
O        0.00000000       0.00000000       0.00000000
H        0.95883000       0.00000000       0.00000000
H        0.62632000       1.08481000       0.00000000
3
Lattice="15.0 0.0 0.0 0.0 15.0 0.0 0.0 0.0 15.0" Properties=species:S:1:pos:R:3 energy=-0.7263731762 pbc="T T T"
O        0.00000000       0.00000000       0.00000000
H        0.95883000       0.00000000       0.00000000
H        0.64474000       1.11671000       0.00000000
3
Lattice="15.0 0.0 0.0 0.0 15.0 0.0 0.0 0.0 15.0" Properties=species:S:1:pos:R:3 energy=-0.7941357312 pbc="T T T"
O        0.00000000       0.00000000       0.00000000
H        0.95883000       0.00000000       0.00000000
H        0.66316000       1.14863000       0.00000000
3
Lattice="15.0 0.0 0.0 0.0 15.0 0.0 0.0 0.0 15.0" Properties=species:S:1:pos:R:3 energy=-0.8586885966 pbc="T T T"
O        0.00000000       0.00000000       0.00000000
H        0.95883000       0.00000000       0.00000000
H        0.68158000       1.18053000       0.00000000
3
Lattice="15.0 0.0 0.0 0.0 15.0 0.0 0.0 0.0 15.0" Properties=species:S:1:pos:R:3 energy=-0.9198451374 pbc="T T T"
O        0.00000000       0.00000000       0.00000000
H        0.95883000       0.00000000       0.00000000
H        0.70000000       1.21244000       0.00000000
3
Lattice="15.0 0.0 0.0 0.0 15.0 0.0 0.0 0.0 15.0" Properties=species:S:1:pos:R:3 energy=0.4802886077 pbc="T T T"
O        0.00000000       0.00000000       0.00000000
H        0.95883000       0.00000000       0.00000000
H        0.31667000       0.62428000       0.00000000
3
Lattice="15.0 0.0 0.0 0.0 15.0 0.0 0.0 0.0 15.0" Properties=species:S:1:pos:R:3 energy=0.4230295110 pbc="T T T"
O        0.00000000       0.00000000       0.00000000
H        0.95883000       0.00000000       0.00000000
H        0.33333000       0.65713000       0.00000000
3
Lattice="15.0 0.0 0.0 0.0 15.0 0.0 0.0 0.0 15.0" Properties=species:S:1:pos:R:3 energy=0.3623498262 pbc="T T T"
O        0.00000000       0.00000000       0.00000000
H        0.95883000       0.00000000       0.00000000
H        0.35000000       0.68999000       0.00000000
3
Lattice="15.0 0.0 0.0 0.0 15.0 0.0 0.0 0.0 15.0" Properties=species:S:1:pos:R:3 energy=0.2952440144 pbc="T T T"
O        0.00000000       0.00000000       0.00000000
H        0.95883000       0.00000000       0.00000000
H        0.36667000       0.72285000       0.00000000
3
Lattice="15.0 0.0 0.0 0.0 15.0 0.0 0.0 0.0 15.0" Properties=species:S:1:pos:R:3 energy=0.2251810565 pbc="T T T"
O        0.00000000       0.00000000       0.00000000
H        0.95883000       0.00000000       0.00000000
H        0.38333000       0.75571000       0.00000000
3
Lattice="15.0 0.0 0.0 0.0 15.0 0.0 0.0 0.0 15.0" Properties=species:S:1:pos:R:3 energy=0.1524120300 pbc="T T T"
O        0.00000000       0.00000000       0.00000000
H        0.95883000       0.00000000       0.00000000
H        0.40000000       0.78856000       0.00000000
3
Lattice="15.0 0.0 0.0 0.0 15.0 0.0 0.0 0.0 15.0" Properties=species:S:1:pos:R:3 energy=0.0775839299 pbc="T T T"
O        0.00000000       0.00000000       0.00000000
H        0.95883000       0.00000000       0.00000000
H        0.41667000       0.82142000       0.00000000
3
Lattice="15.0 0.0 0.0 0.0 15.0 0.0 0.0 0.0 15.0" Properties=species:S:1:pos:R:3 energy=0.0016482145 pbc="T T T"
O        0.00000000       0.00000000       0.00000000
H        0.95883000       0.00000000       0.00000000
H        0.43333000       0.85427000       0.00000000
3
Lattice="15.0 0.0 0.0 0.0 15.0 0.0 0.0 0.0 15.0" Properties=species:S:1:pos:R:3 energy=-0.0746224774 pbc="T T T"
O        0.00000000       0.00000000       0.00000000
H        0.95883000       0.00000000       0.00000000
H        0.45000000       0.88713000       0.00000000
3
Lattice="15.0 0.0 0.0 0.0 15.0 0.0 0.0 0.0 15.0" Properties=species:S:1:pos:R:3 energy=-0.1505338996 pbc="T T T"
O        0.00000000       0.00000000       0.00000000
H        0.95883000       0.00000000       0.00000000
H        0.46667000       0.91999000       0.00000000
3
Lattice="15.0 0.0 0.0 0.0 15.0 0.0 0.0 0.0 15.0" Properties=species:S:1:pos:R:3 energy=-0.2255788351 pbc="T T T"
O        0.00000000       0.00000000       0.00000000
H        0.95883000       0.00000000       0.00000000
H        0.48333000       0.95284000       0.00000000
3
Lattice="15.0 0.0 0.0 0.0 15.0 0.0 0.0 0.0 15.0" Properties=species:S:1:pos:R:3 energy=-0.2992006129 pbc="T T T"
O        0.00000000       0.00000000       0.00000000
H        0.95883000       0.00000000       0.00000000
H        0.50000000       0.98570000       0.00000000
3
Lattice="15.0 0.0 0.0 0.0 15.0 0.0 0.0 0.0 15.0" Properties=species:S:1:pos:R:3 energy=-0.3710470907 pbc="T T T"
O        0.00000000       0.00000000       0.00000000
H        0.95883000       0.00000000       0.00000000
H        0.51667000       1.01856000       0.00000000
3
Lattice="15.0 0.0 0.0 0.0 15.0 0.0 0.0 0.0 15.0" Properties=species:S:1:pos:R:3 energy=-0.4407144736 pbc="T T T"
O        0.00000000       0.00000000       0.00000000
H        0.95883000       0.00000000       0.00000000
H        0.53333000       1.05142000       0.00000000
3
Lattice="15.0 0.0 0.0 0.0 15.0 0.0 0.0 0.0 15.0" Properties=species:S:1:pos:R:3 energy=-0.5080323577 pbc="T T T"
O        0.00000000       0.00000000       0.00000000
H        0.95883000       0.00000000       0.00000000
H        0.55000000       1.08427000       0.00000000
3
Lattice="15.0 0.0 0.0 0.0 15.0 0.0 0.0 0.0 15.0" Properties=species:S:1:pos:R:3 energy=-0.5727296226 pbc="T T T"
O        0.00000000       0.00000000       0.00000000
H        0.95883000       0.00000000       0.00000000
H        0.56667000       1.11713000       0.00000000
3
Lattice="15.0 0.0 0.0 0.0 15.0 0.0 0.0 0.0 15.0" Properties=species:S:1:pos:R:3 energy=-0.6347510004 pbc="T T T"
O        0.00000000       0.00000000       0.00000000
H        0.95883000       0.00000000       0.00000000
H        0.58333000       1.14998000       0.00000000
3
Lattice="15.0 0.0 0.0 0.0 15.0 0.0 0.0 0.0 15.0" Properties=species:S:1:pos:R:3 energy=-0.6938999211 pbc="T T T"
O        0.00000000       0.00000000       0.00000000
H        0.95883000       0.00000000       0.00000000
H        0.60000000       1.18285000       0.00000000
3
Lattice="15.0 0.0 0.0 0.0 15.0 0.0 0.0 0.0 15.0" Properties=species:S:1:pos:R:3 energy=-0.7502547993 pbc="T T T"
O        0.00000000       0.00000000       0.00000000
H        0.95883000       0.00000000       0.00000000
H        0.61667000       1.21570000       0.00000000
3
Lattice="15.0 0.0 0.0 0.0 15.0 0.0 0.0 0.0 15.0" Properties=species:S:1:pos:R:3 energy=-0.8036064391 pbc="T T T"
O        0.00000000       0.00000000       0.00000000
H        0.95883000       0.00000000       0.00000000
H        0.63333000       1.24855000       0.00000000
3
Lattice="15.0 0.0 0.0 0.0 15.0 0.0 0.0 0.0 15.0" Properties=species:S:1:pos:R:3 energy=0.4268338458 pbc="T T T"
O        0.00000000       0.00000000       0.00000000
H        0.95883000       0.00000000       0.00000000
H        0.28240000       0.64051000       0.00000000
3
Lattice="15.0 0.0 0.0 0.0 15.0 0.0 0.0 0.0 15.0" Properties=species:S:1:pos:R:3 energy=0.3747892737 pbc="T T T"
O        0.00000000       0.00000000       0.00000000
H        0.95883000       0.00000000       0.00000000
H        0.29727000       0.67421000       0.00000000
3
Lattice="15.0 0.0 0.0 0.0 15.0 0.0 0.0 0.0 15.0" Properties=species:S:1:pos:R:3 energy=0.3205171115 pbc="T T T"
O        0.00000000       0.00000000       0.00000000
H        0.95883000       0.00000000       0.00000000
H        0.31213000       0.70792000       0.00000000
3
Lattice="15.0 0.0 0.0 0.0 15.0 0.0 0.0 0.0 15.0" Properties=species:S:1:pos:R:3 energy=0.2604397281 pbc="T T T"
O        0.00000000       0.00000000       0.00000000
H        0.95883000       0.00000000       0.00000000
H        0.32700000       0.74164000       0.00000000
3
Lattice="15.0 0.0 0.0 0.0 15.0 0.0 0.0 0.0 15.0" Properties=species:S:1:pos:R:3 energy=0.1983260908 pbc="T T T"
O        0.00000000       0.00000000       0.00000000
H        0.95883000       0.00000000       0.00000000
H        0.34186000       0.77535000       0.00000000
3
Lattice="15.0 0.0 0.0 0.0 15.0 0.0 0.0 0.0 15.0" Properties=species:S:1:pos:R:3 energy=0.1340720401 pbc="T T T"
O        0.00000000       0.00000000       0.00000000
H        0.95883000       0.00000000       0.00000000
H        0.35672000       0.80906000       0.00000000
3
Lattice="15.0 0.0 0.0 0.0 15.0 0.0 0.0 0.0 15.0" Properties=species:S:1:pos:R:3 energy=0.0682714361 pbc="T T T"
O        0.00000000       0.00000000       0.00000000
H        0.95883000       0.00000000       0.00000000
H        0.37158000       0.84277000       0.00000000
3
Lattice="15.0 0.0 0.0 0.0 15.0 0.0 0.0 0.0 15.0" Properties=species:S:1:pos:R:3 energy=0.0016801184 pbc="T T T"
O        0.00000000       0.00000000       0.00000000
H        0.95883000       0.00000000       0.00000000
H        0.38645000       0.87648000       0.00000000
3
Lattice="15.0 0.0 0.0 0.0 15.0 0.0 0.0 0.0 15.0" Properties=species:S:1:pos:R:3 energy=-0.0650243013 pbc="T T T"
O        0.00000000       0.00000000       0.00000000
H        0.95883000       0.00000000       0.00000000
H        0.40131000       0.91020000       0.00000000
3
Lattice="15.0 0.0 0.0 0.0 15.0 0.0 0.0 0.0 15.0" Properties=species:S:1:pos:R:3 energy=-0.1313101084 pbc="T T T"
O        0.00000000       0.00000000       0.00000000
H        0.95883000       0.00000000       0.00000000
H        0.41618000       0.94390000       0.00000000
3
Lattice="15.0 0.0 0.0 0.0 15.0 0.0 0.0 0.0 15.0" Properties=species:S:1:pos:R:3 energy=-0.1967495903 pbc="T T T"
O        0.00000000       0.00000000       0.00000000
H        0.95883000       0.00000000       0.00000000
H        0.43104000       0.97761000       0.00000000
3
Lattice="15.0 0.0 0.0 0.0 15.0 0.0 0.0 0.0 15.0" Properties=species:S:1:pos:R:3 energy=-0.2609126656 pbc="T T T"
O        0.00000000       0.00000000       0.00000000
H        0.95883000       0.00000000       0.00000000
H        0.44590000       1.01132000       0.00000000
3
Lattice="15.0 0.0 0.0 0.0 15.0 0.0 0.0 0.0 15.0" Properties=species:S:1:pos:R:3 energy=-0.3234603925 pbc="T T T"
O        0.00000000       0.00000000       0.00000000
H        0.95883000       0.00000000       0.00000000
H        0.46077000       1.04504000       0.00000000
3
Lattice="15.0 0.0 0.0 0.0 15.0 0.0 0.0 0.0 15.0" Properties=species:S:1:pos:R:3 energy=-0.3841166584 pbc="T T T"
O        0.00000000       0.00000000       0.00000000
H        0.95883000       0.00000000       0.00000000
H        0.47563000       1.07875000       0.00000000
3
Lattice="15.0 0.0 0.0 0.0 15.0 0.0 0.0 0.0 15.0" Properties=species:S:1:pos:R:3 energy=-0.4426864514 pbc="T T T"
O        0.00000000       0.00000000       0.00000000
H        0.95883000       0.00000000       0.00000000
H        0.49049000       1.11246000       0.00000000
3
Lattice="15.0 0.0 0.0 0.0 15.0 0.0 0.0 0.0 15.0" Properties=species:S:1:pos:R:3 energy=-0.4989966171 pbc="T T T"
O        0.00000000       0.00000000       0.00000000
H        0.95883000       0.00000000       0.00000000
H        0.50535000       1.14617000       0.00000000
3
Lattice="15.0 0.0 0.0 0.0 15.0 0.0 0.0 0.0 15.0" Properties=species:S:1:pos:R:3 energy=-0.5529034353 pbc="T T T"
O        0.00000000       0.00000000       0.00000000
H        0.95883000       0.00000000       0.00000000
H        0.52022000       1.17988000       0.00000000
3
Lattice="15.0 0.0 0.0 0.0 15.0 0.0 0.0 0.0 15.0" Properties=species:S:1:pos:R:3 energy=-0.6043275893 pbc="T T T"
O        0.00000000       0.00000000       0.00000000
H        0.95883000       0.00000000       0.00000000
H        0.53508000       1.21359000       0.00000000
3
Lattice="15.0 0.0 0.0 0.0 15.0 0.0 0.0 0.0 15.0" Properties=species:S:1:pos:R:3 energy=-0.6533182050 pbc="T T T"
O        0.00000000       0.00000000       0.00000000
H        0.95883000       0.00000000       0.00000000
H        0.54995000       1.24730000       0.00000000
3
Lattice="15.0 0.0 0.0 0.0 15.0 0.0 0.0 0.0 15.0" Properties=species:S:1:pos:R:3 energy=-0.6996331824 pbc="T T T"
O        0.00000000       0.00000000       0.00000000
H        0.95883000       0.00000000       0.00000000
H        0.56481000       1.28101000       0.00000000
3
Lattice="15.0 0.0 0.0 0.0 15.0 0.0 0.0 0.0 15.0" Properties=species:S:1:pos:R:3 energy=0.3768039013 pbc="T T T"
O        0.00000000       0.00000000       0.00000000
H        0.95883000       0.00000000       0.00000000
H        0.24731000       0.65486000       0.00000000
3
Lattice="15.0 0.0 0.0 0.0 15.0 0.0 0.0 0.0 15.0" Properties=species:S:1:pos:R:3 energy=0.3299412912 pbc="T T T"
O        0.00000000       0.00000000       0.00000000
H        0.95883000       0.00000000       0.00000000
H        0.26033000       0.68932000       0.00000000
3
Lattice="15.0 0.0 0.0 0.0 15.0 0.0 0.0 0.0 15.0" Properties=species:S:1:pos:R:3 energy=0.2818164438 pbc="T T T"
O        0.00000000       0.00000000       0.00000000
H        0.95883000       0.00000000       0.00000000
H        0.27335000       0.72378000       0.00000000
3
Lattice="15.0 0.0 0.0 0.0 15.0 0.0 0.0 0.0 15.0" Properties=species:S:1:pos:R:3 energy=0.2284616863 pbc="T T T"
O        0.00000000       0.00000000       0.00000000
H        0.95883000       0.00000000       0.00000000
H        0.28637000       0.75826000       0.00000000
3
Lattice="15.0 0.0 0.0 0.0 15.0 0.0 0.0 0.0 15.0" Properties=species:S:1:pos:R:3 energy=0.1737835936 pbc="T T T"
O        0.00000000       0.00000000       0.00000000
H        0.95883000       0.00000000       0.00000000
H        0.29938000       0.79272000       0.00000000
3
Lattice="15.0 0.0 0.0 0.0 15.0 0.0 0.0 0.0 15.0" Properties=species:S:1:pos:R:3 energy=0.1173622650 pbc="T T T"
O        0.00000000       0.00000000       0.00000000
H        0.95883000       0.00000000       0.00000000
H        0.31240000       0.82719000       0.00000000
3
Lattice="15.0 0.0 0.0 0.0 15.0 0.0 0.0 0.0 15.0" Properties=species:S:1:pos:R:3 energy=0.0597397190 pbc="T T T"
O        0.00000000       0.00000000       0.00000000
H        0.95883000       0.00000000       0.00000000
H        0.32541000       0.86165000       0.00000000
3
Lattice="15.0 0.0 0.0 0.0 15.0 0.0 0.0 0.0 15.0" Properties=species:S:1:pos:R:3 energy=0.0015968855 pbc="T T T"
O        0.00000000       0.00000000       0.00000000
H        0.95883000       0.00000000       0.00000000
H        0.33843000       0.89611000       0.00000000
3
Lattice="15.0 0.0 0.0 0.0 15.0 0.0 0.0 0.0 15.0" Properties=species:S:1:pos:R:3 energy=-0.0565409564 pbc="T T T"
O        0.00000000       0.00000000       0.00000000
H        0.95883000       0.00000000       0.00000000
H        0.35145000       0.93059000       0.00000000
3
Lattice="15.0 0.0 0.0 0.0 15.0 0.0 0.0 0.0 15.0" Properties=species:S:1:pos:R:3 energy=-0.1142073753 pbc="T T T"
O        0.00000000       0.00000000       0.00000000
H        0.95883000       0.00000000       0.00000000
H        0.36446000       0.96505000       0.00000000
3
Lattice="15.0 0.0 0.0 0.0 15.0 0.0 0.0 0.0 15.0" Properties=species:S:1:pos:R:3 energy=-0.1710592223 pbc="T T T"
O        0.00000000       0.00000000       0.00000000
H        0.95883000       0.00000000       0.00000000
H        0.37748000       0.99952000       0.00000000
3
Lattice="15.0 0.0 0.0 0.0 15.0 0.0 0.0 0.0 15.0" Properties=species:S:1:pos:R:3 energy=-0.2267728721 pbc="T T T"
O        0.00000000       0.00000000       0.00000000
H        0.95883000       0.00000000       0.00000000
H        0.39050000       1.03398000       0.00000000
3
Lattice="15.0 0.0 0.0 0.0 15.0 0.0 0.0 0.0 15.0" Properties=species:S:1:pos:R:3 energy=-0.2810629215 pbc="T T T"
O        0.00000000       0.00000000       0.00000000
H        0.95883000       0.00000000       0.00000000
H        0.40351000       1.06845000       0.00000000
3
Lattice="15.0 0.0 0.0 0.0 15.0 0.0 0.0 0.0 15.0" Properties=species:S:1:pos:R:3 energy=-0.3336263620 pbc="T T T"
O        0.00000000       0.00000000       0.00000000
H        0.95883000       0.00000000       0.00000000
H        0.41653000       1.10292000       0.00000000
3
Lattice="15.0 0.0 0.0 0.0 15.0 0.0 0.0 0.0 15.0" Properties=species:S:1:pos:R:3 energy=-0.3843925216 pbc="T T T"
O        0.00000000       0.00000000       0.00000000
H        0.95883000       0.00000000       0.00000000
H        0.42955000       1.13738000       0.00000000
3
Lattice="15.0 0.0 0.0 0.0 15.0 0.0 0.0 0.0 15.0" Properties=species:S:1:pos:R:3 energy=-0.4331293110 pbc="T T T"
O        0.00000000       0.00000000       0.00000000
H        0.95883000       0.00000000       0.00000000
H        0.44256000       1.17185000       0.00000000
3
Lattice="15.0 0.0 0.0 0.0 15.0 0.0 0.0 0.0 15.0" Properties=species:S:1:pos:R:3 energy=-0.4797918727 pbc="T T T"
O        0.00000000       0.00000000       0.00000000
H        0.95883000       0.00000000       0.00000000
H        0.45558000       1.20631000       0.00000000
3
Lattice="15.0 0.0 0.0 0.0 15.0 0.0 0.0 0.0 15.0" Properties=species:S:1:pos:R:3 energy=-0.5242612784 pbc="T T T"
O        0.00000000       0.00000000       0.00000000
H        0.95883000       0.00000000       0.00000000
H        0.46860000       1.24078000       0.00000000
3
Lattice="15.0 0.0 0.0 0.0 15.0 0.0 0.0 0.0 15.0" Properties=species:S:1:pos:R:3 energy=-0.5664754904 pbc="T T T"
O        0.00000000       0.00000000       0.00000000
H        0.95883000       0.00000000       0.00000000
H        0.48161000       1.27525000       0.00000000
3
Lattice="15.0 0.0 0.0 0.0 15.0 0.0 0.0 0.0 15.0" Properties=species:S:1:pos:R:3 energy=-0.6063902440 pbc="T T T"
O        0.00000000       0.00000000       0.00000000
H        0.95883000       0.00000000       0.00000000
H        0.49463000       1.30971000       0.00000000
3
Lattice="15.0 0.0 0.0 0.0 15.0 0.0 0.0 0.0 15.0" Properties=species:S:1:pos:R:3 energy=0.3302675081 pbc="T T T"
O        0.00000000       0.00000000       0.00000000
H        0.95883000       0.00000000       0.00000000
H        0.21150000       0.66728000       0.00000000
3
Lattice="15.0 0.0 0.0 0.0 15.0 0.0 0.0 0.0 15.0" Properties=species:S:1:pos:R:3 energy=0.2883809144 pbc="T T T"
O        0.00000000       0.00000000       0.00000000
H        0.95883000       0.00000000       0.00000000
H        0.22263000       0.70240000       0.00000000
3
Lattice="15.0 0.0 0.0 0.0 15.0 0.0 0.0 0.0 15.0" Properties=species:S:1:pos:R:3 energy=0.2459541714 pbc="T T T"
O        0.00000000       0.00000000       0.00000000
H        0.95883000       0.00000000       0.00000000
H        0.23376000       0.73752000       0.00000000
3
Lattice="15.0 0.0 0.0 0.0 15.0 0.0 0.0 0.0 15.0" Properties=species:S:1:pos:R:3 energy=0.1990515633 pbc="T T T"
O        0.00000000       0.00000000       0.00000000
H        0.95883000       0.00000000       0.00000000
H        0.24489000       0.77265000       0.00000000
3
Lattice="15.0 0.0 0.0 0.0 15.0 0.0 0.0 0.0 15.0" Properties=species:S:1:pos:R:3 energy=0.1511126325 pbc="T T T"
O        0.00000000       0.00000000       0.00000000
H        0.95883000       0.00000000       0.00000000
H        0.25602000       0.80777000       0.00000000
3
Lattice="15.0 0.0 0.0 0.0 15.0 0.0 0.0 0.0 15.0" Properties=species:S:1:pos:R:3 energy=0.1019263602 pbc="T T T"
O        0.00000000       0.00000000       0.00000000
H        0.95883000       0.00000000       0.00000000
H        0.26716000       0.84289000       0.00000000
3
Lattice="15.0 0.0 0.0 0.0 15.0 0.0 0.0 0.0 15.0" Properties=species:S:1:pos:R:3 energy=0.0517914561 pbc="T T T"
O        0.00000000       0.00000000       0.00000000
H        0.95883000       0.00000000       0.00000000
H        0.27829000       0.87800000       0.00000000
3
Lattice="15.0 0.0 0.0 0.0 15.0 0.0 0.0 0.0 15.0" Properties=species:S:1:pos:R:3 energy=0.0012983576 pbc="T T T"
O        0.00000000       0.00000000       0.00000000
H        0.95883000       0.00000000       0.00000000
H        0.28942000       0.91312000       0.00000000
3
Lattice="15.0 0.0 0.0 0.0 15.0 0.0 0.0 0.0 15.0" Properties=species:S:1:pos:R:3 energy=-0.0490795465 pbc="T T T"
O        0.00000000       0.00000000       0.00000000
H        0.95883000       0.00000000       0.00000000
H        0.30055000       0.94825000       0.00000000
3
Lattice="15.0 0.0 0.0 0.0 15.0 0.0 0.0 0.0 15.0" Properties=species:S:1:pos:R:3 energy=-0.0989724107 pbc="T T T"
O        0.00000000       0.00000000       0.00000000
H        0.95883000       0.00000000       0.00000000
H        0.31168000       0.98337000       0.00000000
3
Lattice="15.0 0.0 0.0 0.0 15.0 0.0 0.0 0.0 15.0" Properties=species:S:1:pos:R:3 energy=-0.1481178009 pbc="T T T"
O        0.00000000       0.00000000       0.00000000
H        0.95883000       0.00000000       0.00000000
H        0.32281000       1.01849000       0.00000000
3
Lattice="15.0 0.0 0.0 0.0 15.0 0.0 0.0 0.0 15.0" Properties=species:S:1:pos:R:3 energy=-0.1962464894 pbc="T T T"
O        0.00000000       0.00000000       0.00000000
H        0.95883000       0.00000000       0.00000000
H        0.33394000       1.05360000       0.00000000
3
Lattice="15.0 0.0 0.0 0.0 15.0 0.0 0.0 0.0 15.0" Properties=species:S:1:pos:R:3 energy=-0.2430551672 pbc="T T T"
O        0.00000000       0.00000000       0.00000000
H        0.95883000       0.00000000       0.00000000
H        0.34508000       1.08873000       0.00000000
3
Lattice="15.0 0.0 0.0 0.0 15.0 0.0 0.0 0.0 15.0" Properties=species:S:1:pos:R:3 energy=-0.2883781951 pbc="T T T"
O        0.00000000       0.00000000       0.00000000
H        0.95883000       0.00000000       0.00000000
H        0.35621000       1.12385000       0.00000000
3
Lattice="15.0 0.0 0.0 0.0 15.0 0.0 0.0 0.0 15.0" Properties=species:S:1:pos:R:3 energy=-0.3320735602 pbc="T T T"
O        0.00000000       0.00000000       0.00000000
H        0.95883000       0.00000000       0.00000000
H        0.36734000       1.15897000       0.00000000
3
Lattice="15.0 0.0 0.0 0.0 15.0 0.0 0.0 0.0 15.0" Properties=species:S:1:pos:R:3 energy=-0.3740070553 pbc="T T T"
O        0.00000000       0.00000000       0.00000000
H        0.95883000       0.00000000       0.00000000
H        0.37847000       1.19409000       0.00000000
3
Lattice="15.0 0.0 0.0 0.0 15.0 0.0 0.0 0.0 15.0" Properties=species:S:1:pos:R:3 energy=-0.4141182483 pbc="T T T"
O        0.00000000       0.00000000       0.00000000
H        0.95883000       0.00000000       0.00000000
H        0.38960000       1.22920000       0.00000000
3
Lattice="15.0 0.0 0.0 0.0 15.0 0.0 0.0 0.0 15.0" Properties=species:S:1:pos:R:3 energy=-0.4522280111 pbc="T T T"
O        0.00000000       0.00000000       0.00000000
H        0.95883000       0.00000000       0.00000000
H        0.40073000       1.26433000       0.00000000
3
Lattice="15.0 0.0 0.0 0.0 15.0 0.0 0.0 0.0 15.0" Properties=species:S:1:pos:R:3 energy=-0.4883672692 pbc="T T T"
O        0.00000000       0.00000000       0.00000000
H        0.95883000       0.00000000       0.00000000
H        0.41187000       1.29945000       0.00000000
3
Lattice="15.0 0.0 0.0 0.0 15.0 0.0 0.0 0.0 15.0" Properties=species:S:1:pos:R:3 energy=-0.5224147604 pbc="T T T"
O        0.00000000       0.00000000       0.00000000
H        0.95883000       0.00000000       0.00000000
H        0.42300000       1.33457000       0.00000000
3
Lattice="15.0 0.0 0.0 0.0 15.0 0.0 0.0 0.0 15.0" Properties=species:S:1:pos:R:3 energy=0.2864542015 pbc="T T T"
O        0.00000000       0.00000000       0.00000000
H        0.95883000       0.00000000       0.00000000
H        0.17506000       0.67776000       0.00000000
3
Lattice="15.0 0.0 0.0 0.0 15.0 0.0 0.0 0.0 15.0" Properties=species:S:1:pos:R:3 energy=0.2498780310 pbc="T T T"
O        0.00000000       0.00000000       0.00000000
H        0.95883000       0.00000000       0.00000000
H        0.18428000       0.71343000       0.00000000
3
Lattice="15.0 0.0 0.0 0.0 15.0 0.0 0.0 0.0 15.0" Properties=species:S:1:pos:R:3 energy=0.2129927739 pbc="T T T"
O        0.00000000       0.00000000       0.00000000
H        0.95883000       0.00000000       0.00000000
H        0.19349000       0.74909000       0.00000000
3
Lattice="15.0 0.0 0.0 0.0 15.0 0.0 0.0 0.0 15.0" Properties=species:S:1:pos:R:3 energy=0.1720679986 pbc="T T T"
O        0.00000000       0.00000000       0.00000000
H        0.95883000       0.00000000       0.00000000
H        0.20270000       0.78477000       0.00000000
3
Lattice="15.0 0.0 0.0 0.0 15.0 0.0 0.0 0.0 15.0" Properties=species:S:1:pos:R:3 energy=0.1304513934 pbc="T T T"
O        0.00000000       0.00000000       0.00000000
H        0.95883000       0.00000000       0.00000000
H        0.21192000       0.82044000       0.00000000
3
Lattice="15.0 0.0 0.0 0.0 15.0 0.0 0.0 0.0 15.0" Properties=species:S:1:pos:R:3 energy=0.0878676714 pbc="T T T"
O        0.00000000       0.00000000       0.00000000
H        0.95883000       0.00000000       0.00000000
H        0.22113000       0.85611000       0.00000000
3
Lattice="15.0 0.0 0.0 0.0 15.0 0.0 0.0 0.0 15.0" Properties=species:S:1:pos:R:3 energy=0.0445850792 pbc="T T T"
O        0.00000000       0.00000000       0.00000000
H        0.95883000       0.00000000       0.00000000
H        0.23034000       0.89178000       0.00000000
3
Lattice="15.0 0.0 0.0 0.0 15.0 0.0 0.0 0.0 15.0" Properties=species:S:1:pos:R:3 energy=0.0010788531 pbc="T T T"
O        0.00000000       0.00000000       0.00000000
H        0.95883000       0.00000000       0.00000000
H        0.23956000       0.92745000       0.00000000
3
Lattice="15.0 0.0 0.0 0.0 15.0 0.0 0.0 0.0 15.0" Properties=species:S:1:pos:R:3 energy=-0.0422500880 pbc="T T T"