       3
Lattice="15.0 0.0 0.0 0.0 15.0 0.0 0.0 0.0 15.0" Properties=species:S:1:pos:R:3:forces:R:3 energy=        5.6512283310 pbc="T T T"
       O     0.0000000000     0.0000000000     0.0000000000    -15.248628026    -31.298797994     -0.000000000
       H     0.9588300000     0.0000000000     0.0000000000      3.451070195     -6.245854789     -0.000000000
       H     0.3500000000     0.6062200000     0.0000000000     11.797557882     37.544652783     -0.000000000
       3
Lattice="15.0 0.0 0.0 0.0 15.0 0.0 0.0 0.0 15.0" Properties=species:S:1:pos:R:3:forces:R:3 energy=        4.4200116360 pbc="T T T"
       O     0.0000000000     0.0000000000     0.0000000000    -10.808930249    -22.841407006     -0.000000000
       H     0.9588300000     0.0000000000     0.0000000000      3.312340757     -6.150823120     -0.000000000
       H     0.3684200000     0.6381200000     0.0000000000      7.496589492     28.992230126     -0.000000000
       3
Lattice="15.0 0.0 0.0 0.0 15.0 0.0 0.0 0.0 15.0" Properties=species:S:1:pos:R:3:forces:R:3 energy=        3.5001357201 pbc="T T T"
       O     0.0000000000     0.0000000000     0.0000000000     -7.390579311    -16.239931150     -0.000000000
       H     0.9588300000     0.0000000000     0.0000000000      3.160125721     -6.027595127     -0.000000000
       H     0.3868400000     0.6700300000     0.0000000000      4.230453590     22.267526277     -0.000000000
       3
Lattice="15.0 0.0 0.0 0.0 15.0 0.0 0.0 0.0 15.0" Properties=species:S:1:pos:R:3:forces:R:3 energy=        2.8236985533 pbc="T T T"
       O     0.0000000000     0.0000000000     0.0000000000     -4.761063558    -11.080395213     -0.000000000
       H     0.9588300000     0.0000000000     0.0000000000      3.000095505     -5.879141977     -0.000000000
       H     0.4052700000     0.7019400000     0.0000000000      1.760968053     16.959537190     -0.000000000
       3
Lattice="15.0 0.0 0.0 0.0 15.0 0.0 0.0 0.0 15.0" Properties=species:S:1:pos:R:3:forces:R:3 energy=        2.3379690818 pbc="T T T"
       O     0.0000000000     0.0000000000     0.0000000000     -2.743574314     -7.048748927     -0.000000000
       H     0.9588300000     0.0000000000     0.0000000000      2.836867761     -5.708687270     -0.000000000
       H     0.4236900000     0.7338400000     0.0000000000     -0.093293448     12.757436197     -0.000000000
       3
Lattice="15.0 0.0 0.0 0.0 15.0 0.0 0.0 0.0 15.0" Properties=species:S:1:pos:R:3:forces:R:3 energy=        2.0014067167 pbc="T T T"
       O     0.0000000000     0.0000000000     0.0000000000     -1.200737831     -3.899177384     -0.000000000
       H     0.9588300000     0.0000000000     0.0000000000      2.674258008     -5.519843202     -0.000000000
       H     0.4421100000     0.7657500000     0.0000000000     -1.473520178      9.419020586     -0.000000000
       3
Lattice="15.0 0.0 0.0 0.0 15.0 0.0 0.0 0.0 15.0" Properties=species:S:1:pos:R:3:forces:R:3 energy=        1.7820266887 pbc="T T T"
       O     0.0000000000     0.0000000000     0.0000000000     -0.028470250     -1.444945489     -0.000000000
       H     0.9588300000     0.0000000000     0.0000000000      2.515636655     -5.316734955     -0.000000000
       H     0.4605300000     0.7976500000     0.0000000000     -2.487166405      6.761680496     -0.000000000
       3
Lattice="15.0 0.0 0.0 0.0 15.0 0.0 0.0 0.0 15.0" Properties=species:S:1:pos:R:3:forces:R:3 energy=        1.6543956337 pbc="T T T"
       O     0.0000000000     0.0000000000     0.0000000000      0.855178986      0.461669096     -0.000000000
       H     0.9588300000     0.0000000000     0.0000000000      2.363384081     -5.103098190     -0.000000000
       H     0.4789500000     0.8295600000     0.0000000000     -3.218563067      4.641429094     -0.000000000
       3
Lattice="15.0 0.0 0.0 0.0 15.0 0.0 0.0 0.0 15.0" Properties=species:S:1:pos:R:3:forces:R:3 energy=        1.5987082207 pbc="T T T"
       O     0.0000000000     0.0000000000     0.0000000000      1.513028025      1.934375364     -0.000000000
       H     0.9588300000     0.0000000000     0.0000000000      2.219374005     -4.882876313     -0.000000000
       H     0.4973700000     0.8614700000     0.0000000000     -3.732402030      2.948500897     -0.000000000
       3
Lattice="15.0 0.0 0.0 0.0 15.0 0.0 0.0 0.0 15.0" Properties=species:S:1:pos:R:3:forces:R:3 energy=        1.5992507369 pbc="T T T"
       O     0.0000000000     0.0000000000     0.0000000000      1.994166705      3.062302244     -0.000000000
       H     0.9588300000     0.0000000000     0.0000000000      2.084712825     -4.659723119     -0.000000000
       H     0.5157900000     0.8933700000     0.0000000000     -4.078879530      1.597420926     -0.000000000
       3
Lattice="15.0 0.0 0.0 0.0 15.0 0.0 0.0 0.0 15.0" Properties=species:S:1:pos:R:3:forces:R:3 energy=        1.6434886708 pbc="T T T"
       O     0.0000000000     0.0000000000     0.0000000000      2.337239961      3.916053856     -0.000000000
       H     0.9588300000     0.0000000000     0.0000000000      1.959681408     -4.436579233     -0.000000000
       H     0.5342100000     0.9252800000     0.0000000000     -4.296921369      0.520525377     -0.000000000
       3
Lattice="15.0 0.0 0.0 0.0 15.0 0.0 0.0 0.0 15.0" Properties=species:S:1:pos:R:3:forces:R:3 energy=        1.7214793330 pbc="T T T"
       O     0.0000000000     0.0000000000     0.0000000000      2.572138165      4.550311469     -0.000000000
       H     0.9588300000     0.0000000000     0.0000000000      1.844265355     -4.216283771     -0.000000000
       H     0.5526300000     0.9571800000     0.0000000000     -4.416403468     -0.334027699     -0.000000000
       3
Lattice="15.0 0.0 0.0 0.0 15.0 0.0 0.0 0.0 15.0" Properties=species:S:1:pos:R:3:forces:R:3 energy=        1.8252868549 pbc="T T T"
       O     0.0000000000     0.0000000000     0.0000000000      2.722637554      5.009181558     -0.000000000
       H     0.9588300000     0.0000000000     0.0000000000      1.737885603     -4.000722688     -0.000000000
       H     0.5710600000     0.9891000000     0.0000000000     -4.460523157     -1.008458818     -0.000000000
       3
Lattice="15.0 0.0 0.0 0.0 15.0 0.0 0.0 0.0 15.0" Properties=species:S:1:pos:R:3:forces:R:3 energy=        1.9483668191 pbc="T T T"
       O     0.0000000000     0.0000000000     0.0000000000      2.807122809      5.326816358     -0.000000000
       H     0.9588300000     0.0000000000     0.0000000000      1.640036210     -3.791790016     -0.000000000
       H     0.5894800000     1.0210000000     0.0000000000     -4.447159019     -1.535026342     -0.000000000
       3
Lattice="15.0 0.0 0.0 0.0 15.0 0.0 0.0 0.0 15.0" Properties=species:S:1:pos:R:3:forces:R:3 energy=        2.0856034797 pbc="T T T"
       O     0.0000000000     0.0000000000     0.0000000000      2.840356442      5.531356864     -0.000000000
       H     0.9588300000     0.0000000000     0.0000000000      1.549857706     -3.590427035     -0.000000000
       H     0.6079000000     1.0529100000     0.0000000000     -4.390214148     -1.940929829     -0.000000000
       3
Lattice="15.0 0.0 0.0 0.0 15.0 0.0 0.0 0.0 15.0" Properties=species:S:1:pos:R:3:forces:R:3 energy=        2.2327654471 pbc="T T T"
       O     0.0000000000     0.0000000000     0.0000000000      2.833829745      5.644941056     -0.000000000
       H     0.9588300000     0.0000000000     0.0000000000      1.466695130     -3.397530546     -0.000000000
       H     0.6263200000     1.0848100000     0.0000000000     -4.300524874     -2.247410510     -0.000000000
       3
Lattice="15.0 0.0 0.0 0.0 15.0 0.0 0.0 0.0 15.0" Properties=species:S:1:pos:R:3:forces:R:3 energy=        2.3864678834 pbc="T T T"
       O     0.0000000000     0.0000000000     0.0000000000      2.796631418      5.685584046     -0.000000000
       H     0.9588300000     0.0000000000     0.0000000000      1.389798129     -3.213423789     -0.000000000
       H     0.6447400000     1.1167100000     0.0000000000     -4.186429546     -2.472160205     -0.000000000
       3
Lattice="15.0 0.0 0.0 0.0 15.0 0.0 0.0 0.0 15.0" Properties=species:S:1:pos:R:3:forces:R:3 energy=        2.5440058216 pbc="T T T"
       O     0.0000000000     0.0000000000     0.0000000000      2.735887946      5.667771435     -0.000000000
       H     0.9588300000     0.0000000000     0.0000000000      1.318434401     -3.038106764     -0.000000000
       H     0.6631600000     1.1486300000     0.0000000000     -4.054322398     -2.629664671     -0.000000000
       3
Lattice="15.0 0.0 0.0 0.0 15.0 0.0 0.0 0.0 15.0" Properties=species:S:1:pos:R:3:forces:R:3 energy=        2.7030394990 pbc="T T T"
       O     0.0000000000     0.0000000000     0.0000000000      2.657248816      5.603119370     -0.000000000
       H     0.9588300000     0.0000000000     0.0000000000      1.252144800     -2.871712756     -0.000000000
       H     0.6815800000     1.1805300000     0.0000000000     -3.909393616     -2.731406614     -0.000000000
       3
Lattice="15.0 0.0 0.0 0.0 15.0 0.0 0.0 0.0 15.0" Properties=species:S:1:pos:R:3:forces:R:3 energy=        2.8618318685 pbc="T T T"
       O     0.0000000000     0.0000000000     0.0000000000      2.565024433      5.501048686     -0.000000000
       H     0.9588300000     0.0000000000     0.0000000000      1.190326195     -2.713763027     -0.000000000
       H     0.7000000000     1.2124400000     0.0000000000     -3.755350679     -2.787285659     -0.000000000
       3
Lattice="15.0 0.0 0.0 0.0 15.0 0.0 0.0 0.0 15.0" Properties=species:S:1:pos:R:3:forces:R:3 energy=        5.3429546479 pbc="T T T"
       O     0.0000000000     0.0000000000     0.0000000000    -13.442148700    -32.008205646     -0.000000000
       H     0.9588300000     0.0000000000     0.0000000000      3.001907157     -5.634739788     -0.000000000
       H     0.3166700000     0.6242800000     0.0000000000     10.440241543     37.642945435     -0.000000000
       3
Lattice="15.0 0.0 0.0 0.0 15.0 0.0 0.0 0.0 15.0" Properties=species:S:1:pos:R:3:forces:R:3 energy=        4.1168979038 pbc="T T T"
       O     0.0000000000     0.0000000000     0.0000000000     -9.443026936    -23.319708113     -0.000000000
       H     0.9588300000     0.0000000000     0.0000000000      2.881705456     -5.534000165     -0.000000000
       H     0.3333300000     0.6571300000     0.0000000000      6.561321531     28.853708279     -0.000000000
       3
Lattice="15.0 0.0 0.0 0.0 15.0 0.0 0.0 0.0 15.0" Properties=species:S:1:pos:R:3:forces:R:3 energy=        3.2033952102 pbc="T T T"
       O     0.0000000000     0.0000000000     0.0000000000     -6.365091811    -16.538030339     -0.000000000
       H     0.9588300000     0.0000000000     0.0000000000      2.751105490     -5.411520775     -0.000000000
       H     0.3500000000     0.6899900000     0.0000000000      3.613986321     21.949551114     -0.000000000
       3
Lattice="15.0 0.0 0.0 0.0 15.0 0.0 0.0 0.0 15.0" Properties=species:S:1:pos:R:3:forces:R:3 energy=        2.5345215161 pbc="T T T"
       O     0.0000000000     0.0000000000     0.0000000000     -3.998903529    -11.239432057     -0.000000000
       H     0.9588300000     0.0000000000     0.0000000000      2.614570694     -5.269686522     -0.000000000
       H     0.3666700000     0.7228500000     0.0000000000      1.384332835     16.509118579     -0.000000000
       3
Lattice="15.0 0.0 0.0 0.0 15.0 0.0 0.0 0.0 15.0" Properties=species:S:1:pos:R:3:forces:R:3 energy=        2.0571959656 pbc="T T T"
       O     0.0000000000     0.0000000000     0.0000000000     -2.184389091     -7.099071199     -0.000000000
       H     0.9588300000     0.0000000000     0.0000000000      2.475755124     -5.111164516     -0.000000000
       H     0.3833300000     0.7557100000     0.0000000000     -0.291366032     12.210235715     -0.000000000
       3
Lattice="15.0 0.0 0.0 0.0 15.0 0.0 0.0 0.0 15.0" Properties=species:S:1:pos:R:3:forces:R:3 energy=        1.7301106568 pbc="T T T"
       O     0.0000000000     0.0000000000     0.0000000000     -0.799007863     -3.866705673     -0.000000000
       H     0.9588300000     0.0000000000     0.0000000000      2.337878469     -4.939201650     -0.000000000
       H     0.4000000000     0.7885600000     0.0000000000     -1.538870606      8.805907323     -0.000000000
       3
Lattice="15.0 0.0 0.0 0.0 15.0 0.0 0.0 0.0 15.0" Properties=species:S:1:pos:R:3:forces:R:3 energy=        1.5206705671 pbc="T T T"
       O     0.0000000000     0.0000000000     0.0000000000      0.252470982     -1.347942658     -0.000000000
       H     0.9588300000     0.0000000000     0.0000000000      2.203248245     -4.756573947     -0.000000000
       H     0.4166700000     0.8214200000     0.0000000000     -2.455719227      6.104516605     -0.000000000
       3
Lattice="15.0 0.0 0.0 0.0 15.0 0.0 0.0 0.0 15.0" Properties=species:S:1:pos:R:3:forces:R:3 energy=        1.4035441195 pbc="T T T"
       O     0.0000000000     0.0000000000     0.0000000000      1.042646639      0.606257824     -0.000000000
       H     0.9588300000     0.0000000000     0.0000000000      2.073919792     -4.566469061     -0.000000000
       H     0.4333300000     0.8542700000     0.0000000000     -3.116566431      3.960211236     -0.000000000
       3
Lattice="15.0 0.0 0.0 0.0 15.0 0.0 0.0 0.0 15.0" Properties=species:S:1:pos:R:3:forces:R:3 energy=        1.3586171144 pbc="T T T"
       O     0.0000000000     0.0000000000     0.0000000000      1.628955933      2.114716225     -0.000000000
       H     0.9588300000     0.0000000000     0.0000000000      1.951254870     -4.371774650     -0.000000000
       H     0.4500000000     0.8871300000     0.0000000000     -3.580210803      2.257058425     -0.000000000
       3
Lattice="15.0 0.0 0.0 0.0 15.0 0.0 0.0 0.0 15.0" Properties=species:S:1:pos:R:3:forces:R:3 energy=        1.3700327316 pbc="T T T"
       O     0.0000000000     0.0000000000     0.0000000000      2.055396322      3.268465323     -0.000000000
       H     0.9588300000     0.0000000000     0.0000000000      1.836133569     -4.175215058     -0.000000000
       H     0.4666700000     0.9199900000     0.0000000000     -3.891529891      0.906749734     -0.000000000
       3
Lattice="15.0 0.0 0.0 0.0 15.0 0.0 0.0 0.0 15.0" Properties=species:S:1:pos:R:3:forces:R:3 energy=        1.4251129661 pbc="T T T"
       O     0.0000000000     0.0000000000     0.0000000000      2.356472336      4.139275184     -0.000000000
       H     0.9588300000     0.0000000000     0.0000000000      1.728943148     -3.979203779     -0.000000000
       H     0.4833300000     0.9528400000     0.0000000000     -4.085415483     -0.160071405     -0.000000000
       3
Lattice="15.0 0.0 0.0 0.0 15.0 0.0 0.0 0.0 15.0" Properties=species:S:1:pos:R:3:forces:R:3 energy=        1.5138445692 pbc="T T T"
       O     0.0000000000     0.0000000000     0.0000000000      2.559499850      4.784489096     -0.000000000
       H     0.9588300000     0.0000000000     0.0000000000      1.629619020     -3.785650219     -0.000000000
       H     0.5000000000     0.9857000000     0.0000000000     -4.189118819     -0.998838928     -0.000000000
       3
Lattice="15.0 0.0 0.0 0.0 15.0 0.0 0.0 0.0 15.0" Properties=species:S:1:pos:R:3:forces:R:3 energy=        1.6281104090 pbc="T T T"
       O     0.0000000000     0.0000000000     0.0000000000      2.685652371      5.248721634     -0.000000000
       H     0.9588300000     0.0000000000     0.0000000000      1.537906082     -3.596188417     -0.000000000
       H     0.5166700000     1.0185600000     0.0000000000     -4.223558453     -1.652533217     -0.000000000
       3
Lattice="15.0 0.0 0.0 0.0 15.0 0.0 0.0 0.0 15.0" Properties=species:S:1:pos:R:3:forces:R:3 energy=        1.7613650969 pbc="T T T"
       O     0.0000000000     0.0000000000     0.0000000000      2.751694838      5.567777483     -0.000000000
       H     0.9588300000     0.0000000000     0.0000000000      1.453354183     -3.412009103     -0.000000000
       H     0.5333300000     1.0514200000     0.0000000000     -4.205049021     -2.155768380     -0.000000000
       3
Lattice="15.0 0.0 0.0 0.0 15.0 0.0 0.0 0.0 15.0" Properties=species:S:1:pos:R:3:forces:R:3 energy=        1.9084251549 pbc="T T T"
       O     0.0000000000     0.0000000000     0.0000000000      2.770910707      5.770256169     -0.000000000
       H     0.9588300000     0.0000000000     0.0000000000      1.375513741     -3.234113775     -0.000000000
       H     0.5500000000     1.0842700000     0.0000000000     -4.146424448     -2.536142395     -0.000000000
       3
Lattice="15.0 0.0 0.0 0.0 15.0 0.0 0.0 0.0 15.0" Properties=species:S:1:pos:R:3:forces:R:3 energy=        2.0650627446 pbc="T T T"
       O     0.0000000000     0.0000000000     0.0000000000      2.753767148      5.879313727     -0.000000000
       H     0.9588300000     0.0000000000     0.0000000000      1.303762189     -3.062925892     -0.000000000
       H     0.5666700000     1.1171300000     0.0000000000     -4.057529337     -2.816387835     -0.000000000
       3
Lattice="15.0 0.0 0.0 0.0 15.0 0.0 0.0 0.0 15.0" Properties=species:S:1:pos:R:3:forces:R:3 energy=        2.2277647780 pbc="T T T"
       O     0.0000000000     0.0000000000     0.0000000000      2.708536640      5.913420352     -0.000000000
       H     0.9588300000     0.0000000000     0.0000000000      1.237620374     -2.898871280     -0.000000000
       H     0.5833300000     1.1499800000     0.0000000000     -3.946157014     -3.014549071     -0.000000000
       3
Lattice="15.0 0.0 0.0 0.0 15.0 0.0 0.0 0.0 15.0" Properties=species:S:1:pos:R:3:forces:R:3 energy=        2.3939361625 pbc="T T T"
       O     0.0000000000     0.0000000000     0.0000000000      2.641717443      5.887552162     -0.000000000
       H     0.9588300000     0.0000000000     0.0000000000      1.176532580     -2.741927110     -0.000000000
       H     0.6000000000     1.1828500000     0.0000000000     -3.818250022     -3.145625052     -0.000000000
       3
Lattice="15.0 0.0 0.0 0.0 15.0 0.0 0.0 0.0 15.0" Properties=species:S:1:pos:R:3:forces:R:3 energy=        2.5611792811 pbc="T T T"
       O     0.0000000000     0.0000000000     0.0000000000      2.558581194      5.813832635     -0.000000000
       H     0.9588300000     0.0000000000     0.0000000000      1.120107637     -2.592254640     -0.000000000
       H     0.6166700000     1.2157000000     0.0000000000     -3.678688831     -3.221577995     -0.000000000
       3
Lattice="15.0 0.0 0.0 0.0 15.0 0.0 0.0 0.0 15.0" Properties=species:S:1:pos:R:3:forces:R:3 energy=        2.7277176900 pbc="T T T"
       O     0.0000000000     0.0000000000     0.0000000000      2.463098091      5.702048884     -0.000000000
       H     0.9588300000     0.0000000000     0.0000000000      1.067874469     -2.449515255     -0.000000000
       H     0.6333300000     1.2485500000     0.0000000000     -3.530972612     -3.252533629     -0.000000000
       3
Lattice="15.0 0.0 0.0 0.0 15.0 0.0 0.0 0.0 15.0" Properties=species:S:1:pos:R:3:forces:R:3 energy=        5.0648918782 pbc="T T T"
       O     0.0000000000     0.0000000000     0.0000000000    -11.637420143    -32.649419743     -0.000000000
       H     0.9588300000     0.0000000000     0.0000000000      2.609009344     -5.081691741     -0.000000000
       H     0.2824000000     0.6405100000     0.0000000000      9.028410798     37.731111484     -0.000000000
       3
Lattice="15.0 0.0 0.0 0.0 15.0 0.0 0.0 0.0 15.0" Properties=species:S:1:pos:R:3:forces:R:3 energy=        3.8441240072 pbc="T T T"
       O     0.0000000000     0.0000000000     0.0000000000     -8.091963420    -23.752441023     -0.000000000
       H     0.9588300000     0.0000000000     0.0000000000      2.505578494     -4.979883309     -0.000000000
       H     0.2972700000     0.6742100000     0.0000000000      5.586384874     28.732324281     -0.000000000
       3
Lattice="15.0 0.0 0.0 0.0 15.0 0.0 0.0 0.0 15.0" Properties=species:S:1:pos:R:3:forces:R:3 energy=        2.9370053823 pbc="T T T"
       O     0.0000000000     0.0000000000     0.0000000000     -5.365297563    -16.810847190     -0.000000000
       H     0.9588300000     0.0000000000     0.0000000000      2.393580314     -4.860726197     -0.000000000
       H     0.3121300000     0.7079200000     0.0000000000      2.971717249     21.671573387     -0.000000000
       3
Lattice="15.0 0.0 0.0 0.0 15.0 0.0 0.0 0.0 15.0" Properties=species:S:1:pos:R:3:forces:R:3 energy=        2.2751626559 pbc="T T T"
       O     0.0000000000     0.0000000000     0.0000000000     -3.270584479    -11.386321256     -0.000000000
       H     0.9588300000     0.0000000000     0.0000000000      2.276875058     -4.726512543     -0.000000000
       H     0.3270000000     0.7416400000     0.0000000000      0.993709421     16.112833747     -0.000000000
       3
Lattice="15.0 0.0 0.0 0.0 15.0 0.0 0.0 0.0 15.0" Properties=species:S:1:pos:R:3:forces:R:3 energy=        1.8058117149 pbc="T T T"
       O     0.0000000000     0.0000000000     0.0000000000     -1.666794516     -7.149595560     -0.000000000
       H     0.9588300000     0.0000000000     0.0000000000      2.158510874     -4.579498235     -0.000000000
       H     0.3418600000     0.7753500000     0.0000000000     -0.491716358     11.729093743     -0.000000000
       3
Lattice="15.0 0.0 0.0 0.0 15.0 0.0 0.0 0.0 15.0" Properties=species:S:1:pos:R:3:forces:R:3 energy=        1.4871985052 pbc="T T T"
       O     0.0000000000     0.0000000000     0.0000000000     -0.444243950     -3.842642244     -0.000000000
       H     0.9588300000     0.0000000000     0.0000000000      2.040969290     -4.422105509     -0.000000000
       H     0.3567200000     0.8090600000     0.0000000000     -1.596725340      8.264747753     -0.000000000
       3
Lattice="15.0 0.0 0.0 0.0 15.0 0.0 0.0 0.0 15.0" Properties=species:S:1:pos:R:3:forces:R:3 energy=        1.2867902365 pbc="T T T"
       O     0.0000000000     0.0000000000     0.0000000000      0.481065610     -1.267503138     -0.000000000
       H     0.9588300000     0.0000000000     0.0000000000      1.926261473     -4.256793320     -0.000000000
       H     0.3715800000     0.8427700000     0.0000000000     -2.407327083      5.524296457     -0.000000000
       3
Lattice="15.0 0.0 0.0 0.0 15.0 0.0 0.0 0.0 15.0" Properties=species:S:1:pos:R:3:forces:R:3 energy=        1.1790257872 pbc="T T T"
       O     0.0000000000     0.0000000000     0.0000000000      1.174218843      0.729983892     -0.000000000
       H     0.9588300000     0.0000000000     0.0000000000      1.816008455     -4.086047975     -0.000000000
       H     0.3864500000     0.8764800000     0.0000000000     -2.990227298      3.356064083     -0.000000000
       3
Lattice="15.0 0.0 0.0 0.0 15.0 0.0 0.0 0.0 15.0" Properties=species:S:1:pos:R:3:forces:R:3 energy=        1.1436308164 pbc="T T T"
       O     0.0000000000     0.0000000000     0.0000000000      1.685756153      2.269946652     -0.000000000
       H     0.9588300000     0.0000000000     0.0000000000      1.711254567     -3.911979581     -0.000000000
       H     0.4013100000     0.9102000000     0.0000000000     -3.397010720      1.642032929     -0.000000000
       3
Lattice="15.0 0.0 0.0 0.0 15.0 0.0 0.0 0.0 15.0" Properties=species:S:1:pos:R:3:forces:R:3 energy=        1.1647062933 pbc="T T T"
       O     0.0000000000     0.0000000000     0.0000000000      2.054768355      3.445670310     -0.000000000
       H     0.9588300000     0.0000000000     0.0000000000      1.612914967     -3.737044622     -0.000000000
       H     0.4161800000     0.9439000000     0.0000000000     -3.667683373      0.291374311     -0.000000000
       3
Lattice="15.0 0.0 0.0 0.0 15.0 0.0 0.0 0.0 15.0" Properties=species:S:1:pos:R:3:forces:R:3 energy=        1.2293932627 pbc="T T T"
       O     0.0000000000     0.0000000000     0.0000000000      2.312220853      4.331769243     -0.000000000
       H     0.9588300000     0.0000000000     0.0000000000      1.521157137     -3.562748171     -0.000000000
       H     0.4310400000     0.9776100000     0.0000000000     -3.833377989     -0.769021072     -0.000000000
       3
Lattice="15.0 0.0 0.0 0.0 15.0 0.0 0.0 0.0 15.0" Properties=species:S:1:pos:R:3:forces:R:3 energy=        1.3275671950 pbc="T T T"
       O     0.0000000000     0.0000000000     0.0000000000      2.482117064      4.986200204     -0.000000000
       H     0.9588300000     0.0000000000     0.0000000000      1.436095851     -3.390755789     -0.000000000
       H     0.4459000000     1.0113200000     0.0000000000     -3.918212864     -1.595444415     -0.000000000
       3
Lattice="15.0 0.0 0.0 0.0 15.0 0.0 0.0 0.0 15.0" Properties=species:S:1:pos:R:3:forces:R:3 energy=        1.4511338811 pbc="T T T"
       O     0.0000000000     0.0000000000     0.0000000000      2.583421610      5.455202655     -0.000000000
       H     0.9588300000     0.0000000000     0.0000000000      1.357552675     -3.222266588     -0.000000000
       H     0.4607700000     1.0450400000     0.0000000000     -3.940974336     -2.232936067     -0.000000000
       3
Lattice="15.0 0.0 0.0 0.0 15.0 0.0 0.0 0.0 15.0" Properties=species:S:1:pos:R:3:forces:R:3 energy=        1.5934183817 pbc="T T T"
       O     0.0000000000     0.0000000000     0.0000000000      2.630974752      5.775229148     -0.000000000
       H     0.9588300000     0.0000000000     0.0000000000      1.285252705     -3.058274249     -0.000000000
       H     0.4756300000     1.0787500000     0.0000000000     -3.916227457     -2.716954899     -0.000000000
       3
Lattice="15.0 0.0 0.0 0.0 15.0 0.0 0.0 0.0 15.0" Properties=species:S:1:pos:R:3:forces:R:3 energy=        1.7491954794 pbc="T T T"
       O     0.0000000000     0.0000000000     0.0000000000      2.636637866      5.975878031     -0.000000000
       H     0.9588300000     0.0000000000     0.0000000000      1.218807603     -2.899432964     -0.000000000
       H     0.4904900000     1.1124600000     0.0000000000     -3.855445469     -3.076445067     -0.000000000
       3
Lattice="15.0 0.0 0.0 0.0 15.0 0.0 0.0 0.0 15.0" Properties=species:S:1:pos:R:3:forces:R:3 energy=        1.9142066112 pbc="T T T"
       O     0.0000000000     0.0000000000     0.0000000000      2.609762318      6.080798424     -0.000000000
       H     0.9588300000     0.0000000000     0.0000000000      1.157808924     -2.746197406     -0.000000000
       H     0.5053500000     1.1461700000     0.0000000000     -3.767571190     -3.334601018     -0.000000000
       3
Lattice="15.0 0.0 0.0 0.0 15.0 0.0 0.0 0.0 15.0" Properties=species:S:1:pos:R:3:forces:R:3 energy=        2.0850529743 pbc="T T T"
       O     0.0000000000     0.0000000000     0.0000000000      2.557792379      6.109048228     -0.000000000
       H     0.9588300000     0.0000000000     0.0000000000      1.101845751     -2.598857287     -0.000000000
       H     0.5202200000     1.1798800000     0.0000000000     -3.659638131     -3.510190941     -0.000000000
       3
Lattice="15.0 0.0 0.0 0.0 15.0 0.0 0.0 0.0 15.0" Properties=species:S:1:pos:R:3:forces:R:3 energy=        2.2588898444 pbc="T T T"
       O     0.0000000000     0.0000000000     0.0000000000      2.486579370      6.076094229     -0.000000000
       H     0.9588300000     0.0000000000     0.0000000000      1.050488199     -2.457470920     -0.000000000
       H     0.5350800000     1.2135900000     0.0000000000     -3.537067569     -3.618623308     -0.000000000
       3
Lattice="15.0 0.0 0.0 0.0 15.0 0.0 0.0 0.0 15.0" Properties=species:S:1:pos:R:3:forces:R:3 energy=        2.4335575977 pbc="T T T"
       O     0.0000000000     0.0000000000     0.0000000000      2.400806505      5.994342057     -0.000000000
       H     0.9588300000     0.0000000000     0.0000000000      1.003370346     -2.322053835     -0.000000000
       H     0.5499500000     1.2473000000     0.0000000000     -3.404176851     -3.672288221     -0.000000000
       3
Lattice="15.0 0.0 0.0 0.0 15.0 0.0 0.0 0.0 15.0" Properties=species:S:1:pos:R:3:forces:R:3 energy=        2.6071926708 pbc="T T T"
       O     0.0000000000     0.0000000000     0.0000000000      2.304146299      5.873947678     -0.000000000
       H     0.9588300000     0.0000000000     0.0000000000      0.960103441     -2.192457628     -0.000000000
       H     0.5648100000     1.2810100000     0.0000000000     -3.264249740     -3.681490050     -0.000000000
       3
Lattice="15.0 0.0 0.0 0.0 15.0 0.0 0.0 0.0 15.0" Properties=species:S:1:pos:R:3:forces:R:3 energy=        4.8142780799 pbc="T T T"
       O     0.0000000000     0.0000000000     0.0000000000     -9.837473119    -33.222772162     -0.000000000
       H     0.9588300000     0.0000000000     0.0000000000      2.260009590     -4.573513064     -0.000000000
       H     0.2473100000     0.6548600000     0.0000000000      7.577463529     37.796285226     -0.000000000
       3
Lattice="15.0 0.0 0.0 0.0 15.0 0.0 0.0 0.0 15.0" Properties=species:S:1:pos:R:3:forces:R:3 energy=        3.5986622195 pbc="T T T"
       O     0.0000000000     0.0000000000     0.0000000000     -6.756510570    -24.141964313     -0.000000000
       H     0.9588300000     0.0000000000     0.0000000000      2.171533466     -4.472957995     -0.000000000
       H     0.2603300000     0.6893200000     0.0000000000      4.584977104     28.614922256     -0.000000000
       3
Lattice="15.0 0.0 0.0 0.0 15.0 0.0 0.0 0.0 15.0" Properties=species:S:1:pos:R:3:forces:R:3 energy=        2.6977303426 pbc="T T T"
       O     0.0000000000     0.0000000000     0.0000000000     -4.390607938    -17.058886360     -0.000000000
       H     0.9588300000     0.0000000000     0.0000000000      2.075962071     -4.358627822     -0.000000000
       H     0.2733500000     0.7237800000     0.0000000000      2.314645867     21.417514182     -0.000000000
       3
Lattice="15.0 0.0 0.0 0.0 15.0 0.0 0.0 0.0 15.0" Properties=species:S:1:pos:R:3:forces:R:3 energy=        2.0425907630 pbc="T T T"