 3
 energy=2.7809290631968517 cutoff=3.63000000 nneightol=1.20000000 pbc="T T T" Lattice="15.00000000       0.00000000       0.00000000       0.00000000      15.00000000       0.00000000       0.00000000       0.00000000      15.00000000" Properties=species:S:1:pos:R:3:Z:I:1:map_shift:I:3:n_neighb:I:1
 O               0.04971158      0.01743134      0.00000000       8       0       0       0       2
 H               0.44985089     -0.27233556      0.00000000       1       0       0       0       2
 H              -0.51750325      0.92463436      0.00000000       1       0       0       0       2
 3
 energy=1.7192378948873204 cutoff=3.63000000 nneightol=1.20000000 pbc="T T T" Lattice="15.00000000       0.00000000       0.00000000       0.00000000      15.00000000       0.00000000       0.00000000       0.00000000      15.00000000" Properties=species:S:1:pos:R:3:Z:I:1:map_shift:I:3:n_neighb:I:1
 O               0.04688986      0.01962188      0.00000000       8       0       0       0       2
 H               0.48574545     -0.27233600      0.00000000       1       0       0       0       2
 H              -0.50861506      0.88986937      0.00000000       1       0       0       0       2
 3
 energy=.90278150922161071 cutoff=3.63000000 nneightol=1.20000000 pbc="T T T" Lattice="15.00000000       0.00000000       0.00000000       0.00000000      15.00000000       0.00000000       0.00000000       0.00000000      15.00000000" Properties=species:S:1:pos:R:3:Z:I:1:map_shift:I:3:n_neighb:I:1
 O               0.04406813      0.02181243      0.00000000       8       0       0       0       2
 H               0.52164000     -0.27233644      0.00000000       1       0       0       0       2
 H              -0.49972687      0.85510438      0.00000000       1       0       0       0       2
 3
 energy=.32366760263705885 cutoff=3.63000000 nneightol=1.20000000 pbc="T T T" Lattice="15.00000000       0.00000000       0.00000000       0.00000000      15.00000000       0.00000000       0.00000000       0.00000000      15.00000000" Properties=species:S:1:pos:R:3:Z:I:1:map_shift:I:3:n_neighb:I:1
 O               0.04124641      0.02400297      0.00000000       8       0       0       0       2
 H               0.55753455     -0.27233688      0.00000000       1       0       0       0       2
 H              -0.49083868      0.82033939      0.00000000       1       0       0       0       2
 3
 energy=-.49636737097088712E-001 cutoff=3.63000000 nneightol=1.20000000 pbc="T T T" Lattice="15.00000000       0.00000000       0.00000000       0.00000000      15.00000000       0.00000000       0.00000000       0.00000000      15.00000000" Properties=species:S:1:pos:R:3:Z:I:1:map_shift:I:3:n_neighb:I:1
 O               0.03842469      0.02619352      0.00000000       8       0       0       0       2
 H               0.59342911     -0.27233732      0.00000000       1       0       0       0       2
 H              -0.48195049      0.78557440      0.00000000       1       0       0       0       2
 3
 energy=-.26368350805962404 cutoff=3.63000000 nneightol=1.20000000 pbc="T T T" Lattice="15.00000000       0.00000000       0.00000000       0.00000000      15.00000000       0.00000000       0.00000000       0.00000000      15.00000000" Properties=species:S:1:pos:R:3:Z:I:1:map_shift:I:3:n_neighb:I:1
 O               0.03560297      0.02838406      0.00000000       8       0       0       0       2
 H               0.62932366     -0.27233776      0.00000000       1       0       0       0       2
 H              -0.47306229      0.75080940      0.00000000       1       0       0       0       2
 3
 energy=-.36954612953504462 cutoff=3.63000000 nneightol=1.20000000 pbc="T T T" Lattice="15.00000000       0.00000000       0.00000000       0.00000000      15.00000000       0.00000000       0.00000000       0.00000000      15.00000000" Properties=species:S:1:pos:R:3:Z:I:1:map_shift:I:3:n_neighb:I:1
 O               0.03278124      0.03057461      0.00000000       8       0       0       0       2
 H               0.66521821     -0.27233820      0.00000000       1       0       0       0       2
 H              -0.46417410      0.71604441      0.00000000       1       0       0       0       2
 3
 energy=-.41241419524104206 cutoff=3.63000000 nneightol=1.20000000 pbc="T T T" Lattice="15.00000000       0.00000000       0.00000000       0.00000000      15.00000000       0.00000000       0.00000000       0.00000000      15.00000000" Properties=species:S:1:pos:R:3:Z:I:1:map_shift:I:3:n_neighb:I:1
 O               0.02995952      0.03276515      0.00000000       8       0       0       0       2
 H               0.70111276     -0.27233864      0.00000000       1       0       0       0       2
 H              -0.45528591      0.68127942      0.00000000       1       0       0       0       2
 3
 energy=-.42305780760886957 cutoff=3.63000000 nneightol=1.20000000 pbc="T T T" Lattice="15.00000000       0.00000000       0.00000000       0.00000000      15.00000000       0.00000000       0.00000000       0.00000000      15.00000000" Properties=species:S:1:pos:R:3:Z:I:1:map_shift:I:3:n_neighb:I:1
 O               0.02713780      0.03495570      0.00000000       8       0       0       0       2
 H               0.73700732     -0.27233908      0.00000000       1       0       0       0       2
 H              -0.44639772      0.64651443      0.00000000       1       0       0       0       2
 3
 energy=-.41235080921901623 cutoff=3.63000000 nneightol=1.20000000 pbc="T T T" Lattice="15.00000000       0.00000000       0.00000000       0.00000000      15.00000000       0.00000000       0.00000000       0.00000000      15.00000000" Properties=species:S:1:pos:R:3:Z:I:1:map_shift:I:3:n_neighb:I:1
 O               0.02431608      0.03714624      0.00000000       8       0       0       0       2
 H               0.77290187     -0.27233952      0.00000000       1       0       0       0       2
 H              -0.43750953      0.61174943      0.00000000       1       0       0       0       2
 3
 energy=-.36940586825082811 cutoff=3.63000000 nneightol=1.20000000 pbc="T T T" Lattice="15.00000000       0.00000000       0.00000000       0.00000000      15.00000000       0.00000000       0.00000000       0.00000000      15.00000000" Properties=species:S:1:pos:R:3:Z:I:1:map_shift:I:3:n_neighb:I:1
 O               0.02149436      0.03933679      0.00000000       8       0       0       0       2
 H               0.80879642     -0.27233997      0.00000000       1       0       0       0       2
 H              -0.42862134      0.57698444      0.00000000       1       0       0       0       2
 3
 energy=-.26345408741055376 cutoff=3.63000000 nneightol=1.20000000 pbc="T T T" Lattice="15.00000000       0.00000000       0.00000000       0.00000000      15.00000000       0.00000000       0.00000000       0.00000000      15.00000000" Properties=species:S:1:pos:R:3:Z:I:1:map_shift:I:3:n_neighb:I:1
 O               0.01867263      0.04152733      0.00000000       8       0       0       0       2
 H               0.84469097     -0.27234041      0.00000000       1       0       0       0       2
 H              -0.41973315      0.54221945      0.00000000       1       0       0       0       2
 3
 energy=-.49328122755379233E-001 cutoff=3.63000000 nneightol=1.20000000 pbc="T T T" Lattice="15.00000000       0.00000000       0.00000000       0.00000000      15.00000000       0.00000000       0.00000000       0.00000000      15.00000000" Properties=species:S:1:pos:R:3:Z:I:1:map_shift:I:3:n_neighb:I:1
 O               0.01585091      0.04371787      0.00000000       8       0       0       0       2
 H               0.88058553     -0.27234085      0.00000000       1       0       0       0       2
 H              -0.41084496      0.50745446      0.00000000       1       0       0       0       2
 3
 energy=.32400715985767814 cutoff=3.63000000 nneightol=1.20000000 pbc="T T T" Lattice="15.00000000       0.00000000       0.00000000       0.00000000      15.00000000       0.00000000       0.00000000       0.00000000      15.00000000" Properties=species:S:1:pos:R:3:Z:I:1:map_shift:I:3:n_neighb:I:1
 O               0.01302919      0.04590842      0.00000000       8       0       0       0       2
 H               0.91648008     -0.27234129      0.00000000       1       0       0       0       2
 H              -0.40195676      0.47268947      0.00000000       1       0       0       0       2
 3
 energy=.90306319181649108 cutoff=3.63000000 nneightol=1.20000000 pbc="T T T" Lattice="15.00000000       0.00000000       0.00000000       0.00000000      15.00000000       0.00000000       0.00000000       0.00000000      15.00000000" Properties=species:S:1:pos:R:3:Z:I:1:map_shift:I:3:n_neighb:I:1
 O               0.01020747      0.04809896      0.00000000       8       0       0       0       2
 H               0.95237463     -0.27234173      0.00000000       1       0       0       0       2
 H              -0.39306857      0.43792447      0.00000000       1       0       0       0       2
 3
 energy=1.7193451115245519 cutoff=3.63000000 nneightol=1.20000000 pbc="T T T" Lattice="15.00000000       0.00000000       0.00000000       0.00000000      15.00000000       0.00000000       0.00000000       0.00000000      15.00000000" Properties=species:S:1:pos:R:3:Z:I:1:map_shift:I:3:n_neighb:I:1
 O               0.00738574      0.05028951      0.00000000       8       0       0       0       2
 H               0.98826918     -0.27234217      0.00000000       1       0       0       0       2
 H              -0.38418038      0.40315948      0.00000000       1       0       0       0       2
 3
 energy=2.7807421435398814 cutoff=3.63000000 nneightol=1.20000000 pbc="T T T" Lattice="15.00000000       0.00000000       0.00000000       0.00000000      15.00000000       0.00000000       0.00000000       0.00000000      15.00000000" Properties=species:S:1:pos:R:3:Z:I:1:map_shift:I:3:n_neighb:I:1
 O               0.00456402      0.05248005      0.00000000       8       0       0       0       2
 H               1.02416374     -0.27234261      0.00000000       1       0       0       0       2
 H              -0.37529219      0.36839449      0.00000000       1       0       0       0       2
 3
 energy=1.9162915350814957 cutoff=3.63000000 nneightol=1.20000000 pbc="T T T" Lattice="15.00000000       0.00000000       0.00000000       0.00000000      15.00000000       0.00000000       0.00000000       0.00000000      15.00000000" Properties=species:S:1:pos:R:3:Z:I:1:map_shift:I:3:n_neighb:I:1
 O               0.04813137      0.01539539      0.00000000       8       0       0       0       2
 H               0.48632337     -0.27476760      0.00000000       1       0       0       0       2
 H              -0.52889674      0.95937857      0.00000000       1       0       0       0       2
 3
 energy=1.0674135291920139 cutoff=3.63000000 nneightol=1.20000000 pbc="T T T" Lattice="15.00000000       0.00000000       0.00000000       0.00000000      15.00000000       0.00000000       0.00000000       0.00000000      15.00000000" Properties=species:S:1:pos:R:3:Z:I:1:map_shift:I:3:n_neighb:I:1
 O               0.04530965      0.01758594      0.00000000       8       0       0       0       2
 H               0.52221793     -0.27476804      0.00000000       1       0       0       0       2
 H              -0.52000855      0.92461358      0.00000000       1       0       0       0       2
 3
 energy=.46167104682151638 cutoff=3.63000000 nneightol=1.20000000 pbc="T T T" Lattice="15.00000000       0.00000000       0.00000000       0.00000000      15.00000000       0.00000000       0.00000000       0.00000000      15.00000000" Properties=species:S:1:pos:R:3:Z:I:1:map_shift:I:3:n_neighb:I:1
 O               0.04248793      0.01977648      0.00000000       8       0       0       0       2
 H               0.55811248     -0.27476848      0.00000000       1       0       0       0       2
 H              -0.51112036      0.88984859      0.00000000       1       0       0       0       2
 3
 energy=.68414919769982596E-001 cutoff=3.63000000 nneightol=1.20000000 pbc="T T T" Lattice="15.00000000       0.00000000       0.00000000       0.00000000      15.00000000       0.00000000       0.00000000       0.00000000      15.00000000" Properties=species:S:1:pos:R:3:Z:I:1:map_shift:I:3:n_neighb:I:1
 O               0.03966621      0.02196703      0.00000000       8       0       0       0       2
 H               0.59400703     -0.27476892      0.00000000       1       0       0       0       2
 H              -0.50223216      0.85508359      0.00000000       1       0       0       0       2
 3
 energy=-.15907458866337354 cutoff=3.63000000 nneightol=1.20000000 pbc="T T T" Lattice="15.00000000       0.00000000       0.00000000       0.00000000      15.00000000       0.00000000       0.00000000       0.00000000      15.00000000" Properties=species:S:1:pos:R:3:Z:I:1:map_shift:I:3:n_neighb:I:1
 O               0.03684448      0.02415757      0.00000000       8       0       0       0       2
 H               0.62990158     -0.27476936      0.00000000       1       0       0       0       2
 H              -0.49334397      0.82031860      0.00000000       1       0       0       0       2
 3
 energy=-.27241961820056559 cutoff=3.63000000 nneightol=1.20000000 pbc="T T T" Lattice="15.00000000       0.00000000       0.00000000       0.00000000      15.00000000       0.00000000       0.00000000       0.00000000      15.00000000" Properties=species:S:1:pos:R:3:Z:I:1:map_shift:I:3:n_neighb:I:1
 O               0.03402276      0.02634811      0.00000000       8       0       0       0       2
 H               0.66579614     -0.27476980      0.00000000       1       0       0       0       2
 H              -0.48445578      0.78555361      0.00000000       1       0       0       0       2
 3
 energy=-.31822643856056398 cutoff=3.63000000 nneightol=1.20000000 pbc="T T T" Lattice="15.00000000       0.00000000       0.00000000       0.00000000      15.00000000       0.00000000       0.00000000       0.00000000      15.00000000" Properties=species:S:1:pos:R:3:Z:I:1:map_shift:I:3:n_neighb:I:1
 O               0.03120104      0.02853866      0.00000000       8       0       0       0       2
 H               0.70169069     -0.27477025      0.00000000       1       0       0       0       2
 H              -0.47556759      0.75078862      0.00000000       1       0       0       0       2
 3
 energy=-.33164319513596396 cutoff=3.63000000 nneightol=1.20000000 pbc="T T T" Lattice="15.00000000       0.00000000       0.00000000       0.00000000      15.00000000       0.00000000       0.00000000       0.00000000      15.00000000" Properties=species:S:1:pos:R:3:Z:I:1:map_shift:I:3:n_neighb:I:1
 O               0.02837932      0.03072920      0.00000000       8       0       0       0       2
 H               0.73758524     -0.27477069      0.00000000       1       0       0       0       2
 H              -0.46667940      0.71602363      0.00000000       1       0       0       0       2
 3
 energy=-.33378775707513775 cutoff=3.63000000 nneightol=1.20000000 pbc="T T T" Lattice="15.00000000       0.00000000       0.00000000       0.00000000      15.00000000       0.00000000       0.00000000       0.00000000      15.00000000" Properties=species:S:1:pos:R:3:Z:I:1:map_shift:I:3:n_neighb:I:1
 O               0.02555759      0.03291975      0.00000000       8       0       0       0       2
 H               0.77347979     -0.27477113      0.00000000       1       0       0       0       2
 H              -0.45779121      0.68125863      0.00000000       1       0       0       0       2
 3
 energy=-.33160649019202726 cutoff=3.63000000 nneightol=1.20000000 pbc="T T T" Lattice="15.00000000       0.00000000       0.00000000       0.00000000      15.00000000       0.00000000       0.00000000       0.00000000      15.00000000" Properties=species:S:1:pos:R:3:Z:I:1:map_shift:I:3:n_neighb:I:1
 O               0.02273587      0.03511029      0.00000000       8       0       0       0       2
 H               0.80937435     -0.27477157      0.00000000       1       0       0       0       2
 H              -0.44890302      0.64649364      0.00000000       1       0       0       0       2
 3
 energy=-.31814237376589194 cutoff=3.63000000 nneightol=1.20000000 pbc="T T T" Lattice="15.00000000       0.00000000       0.00000000       0.00000000      15.00000000       0.00000000       0.00000000       0.00000000      15.00000000" Properties=species:S:1:pos:R:3:Z:I:1:map_shift:I:3:n_neighb:I:1
 O               0.01991415      0.03730084      0.00000000       8       0       0       0       2
 H               0.84526890     -0.27477201      0.00000000       1       0       0       0       2
 H              -0.44001483      0.61172865      0.00000000       1       0       0       0       2
 3
 energy=-.27227818534033332 cutoff=3.63000000 nneightol=1.20000000 pbc="T T T" Lattice="15.00000000       0.00000000       0.00000000       0.00000000      15.00000000       0.00000000       0.00000000       0.00000000      15.00000000" Properties=species:S:1:pos:R:3:Z:I:1:map_shift:I:3:n_neighb:I:1
 O               0.01709243      0.03949138      0.00000000       8       0       0       0       2
 H               0.88116345     -0.27477245      0.00000000       1       0       0       0       2
 H              -0.43112663      0.57696366      0.00000000       1       0       0       0       2
 3
 energy=-.15888406093446061 cutoff=3.63000000 nneightol=1.20000000 pbc="T T T" Lattice="15.00000000       0.00000000       0.00000000       0.00000000      15.00000000       0.00000000       0.00000000       0.00000000      15.00000000" Properties=species:S:1:pos:R:3:Z:I:1:map_shift:I:3:n_neighb:I:1
 O               0.01427070      0.04168193      0.00000000       8       0       0       0       2
 H               0.91705800     -0.27477289      0.00000000       1       0       0       0       2
 H              -0.42223844      0.54219867      0.00000000       1       0       0       0       2
 3
 energy=.68611819208466152E-001 cutoff=3.63000000 nneightol=1.20000000 pbc="T T T" Lattice="15.00000000       0.00000000       0.00000000       0.00000000      15.00000000       0.00000000       0.00000000       0.00000000      15.00000000" Properties=species:S:1:pos:R:3:Z:I:1:map_shift:I:3:n_neighb:I:1
 O               0.01144898      0.04387247      0.00000000       8       0       0       0       2
 H               0.95295256     -0.27477333      0.00000000       1       0       0       0       2
 H              -0.41335025      0.50743367      0.00000000       1       0       0       0       2
 3
 energy=.46179061848062375 cutoff=3.63000000 nneightol=1.20000000 pbc="T T T" Lattice="15.00000000       0.00000000       0.00000000       0.00000000      15.00000000       0.00000000       0.00000000       0.00000000      15.00000000" Properties=species:S:1:pos:R:3:Z:I:1:map_shift:I:3:n_neighb:I:1
 O               0.00862726      0.04606302      0.00000000       8       0       0       0       2
 H               0.98884711     -0.27477377      0.00000000       1       0       0       0       2
 H              -0.40446206      0.47266868      0.00000000       1       0       0       0       2
 3
 energy=1.0673381663807122 cutoff=3.63000000 nneightol=1.20000000 pbc="T T T" Lattice="15.00000000       0.00000000       0.00000000       0.00000000      15.00000000       0.00000000       0.00000000       0.00000000      15.00000000" Properties=species:S:1:pos:R:3:Z:I:1:map_shift:I:3:n_neighb:I:1
 O               0.00580554      0.04825356      0.00000000       8       0       0       0       2
 H               1.02474166     -0.27477421      0.00000000       1       0       0       0       2
 H              -0.39557387      0.43790369      0.00000000       1       0       0       0       2
 3
 energy=1.9158890977890080 cutoff=3.63000000 nneightol=1.20000000 pbc="T T T" Lattice="15.00000000       0.00000000       0.00000000       0.00000000      15.00000000       0.00000000       0.00000000       0.00000000      15.00000000" Properties=species:S:1:pos:R:3:Z:I:1:map_shift:I:3:n_neighb:I:1
 O               0.00298382      0.05044410      0.00000000       8       0       0       0       2
 H               1.06063622     -0.27477465      0.00000000       1       0       0       0       2
 H              -0.38668568      0.40313870      0.00000000       1       0       0       0       2
 3
 energy=1.2466474331218320 cutoff=3.63000000 nneightol=1.20000000 pbc="T T T" Lattice="15.00000000       0.00000000       0.00000000       0.00000000      15.00000000       0.00000000       0.00000000       0.00000000      15.00000000" Properties=species:S:1:pos:R:3:Z:I:1:map_shift:I:3:n_neighb:I:1
 O               0.04655117      0.01335944      0.00000000       8       0       0       0       2
 H               0.52279585     -0.27719964      0.00000000       1       0       0       0       2
 H              -0.54029022      0.99412278      0.00000000       1       0       0       0       2
 3
 energy=.61403010358998245 cutoff=3.63000000 nneightol=1.20000000 pbc="T T T" Lattice="15.00000000       0.00000000       0.00000000       0.00000000      15.00000000       0.00000000       0.00000000       0.00000000      15.00000000" Properties=species:S:1:pos:R:3:Z:I:1:map_shift:I:3:n_neighb:I:1
 O               0.04372944      0.01554999      0.00000000       8       0       0       0       2
 H               0.55869040     -0.27720008      0.00000000       1       0       0       0       2
 H              -0.53140203      0.95935779      0.00000000       1       0       0       0       2
 3
 energy=.20066278343986355 cutoff=3.63000000 nneightol=1.20000000 pbc="T T T" Lattice="15.00000000       0.00000000       0.00000000       0.00000000      15.00000000       0.00000000       0.00000000       0.00000000      15.00000000" Properties=species:S:1:pos:R:3:Z:I:1:map_shift:I:3:n_neighb:I:1
 O               0.04090772      0.01774053      0.00000000       8       0       0       0       2
 H               0.59458496     -0.27720052      0.00000000       1       0       0       0       2
 H              -0.52251384      0.92459279      0.00000000       1       0       0       0       2
 3
 energy=-.40827223638707721E-001 cutoff=3.63000000 nneightol=1.20000000 pbc="T T T" Lattice="15.00000000       0.00000000       0.00000000       0.00000000      15.00000000       0.00000000       0.00000000       0.00000000      15.00000000" Properties=species:S:1:pos:R:3:Z:I:1:map_shift:I:3:n_neighb:I:1
 O               0.03808600      0.01993108      0.00000000       8       0       0       0       2
 H               0.63047951     -0.27720097      0.00000000       1       0       0       0       2
 H              -0.51362565      0.88982780      0.00000000       1       0       0       0       2
 3
 energy=-.16400897239431522 cutoff=3.63000000 nneightol=1.20000000 pbc="T T T" Lattice="15.00000000       0.00000000       0.00000000       0.00000000      15.00000000       0.00000000       0.00000000       0.00000000      15.00000000" Properties=species:S:1:pos:R:3:Z:I:1:map_shift:I:3:n_neighb:I:1
 O               0.03526428      0.02212162      0.00000000       8       0       0       0       2
 H               0.66637406     -0.27720141      0.00000000       1       0       0       0       2
 H              -0.50473746      0.85506281      0.00000000       1       0       0       0       2
 3
 energy=-.21696710812696374 cutoff=3.63000000 nneightol=1.20000000 pbc="T T T" Lattice="15.00000000       0.00000000       0.00000000       0.00000000      15.00000000       0.00000000       0.00000000       0.00000000      15.00000000" Properties=species:S:1:pos:R:3:Z:I:1:map_shift:I:3:n_neighb:I:1
 O               0.03244255      0.02431217      0.00000000       8       0       0       0       2
 H               0.70226861     -0.27720185      0.00000000       1       0       0       0       2
 H              -0.49584927      0.82029782      0.00000000       1       0       0       0       2
 3
 energy=-.23503576873149523 cutoff=3.63000000 nneightol=1.20000000 pbc="T T T" Lattice="15.00000000       0.00000000       0.00000000       0.00000000      15.00000000       0.00000000       0.00000000       0.00000000      15.00000000" Properties=species:S:1:pos:R:3:Z:I:1:map_shift:I:3:n_neighb:I:1
 O               0.02962083      0.02650271      0.00000000       8       0       0       0       2
 H               0.73816317     -0.27720229      0.00000000       1       0       0       0       2
 H              -0.48696108      0.78553283      0.00000000       1       0       0       0       2
 3
 energy=-.23936833605788532 cutoff=3.63000000 nneightol=1.20000000 pbc="T T T" Lattice="15.00000000       0.00000000       0.00000000       0.00000000      15.00000000       0.00000000       0.00000000       0.00000000      15.00000000" Properties=species:S:1:pos:R:3:Z:I:1:map_shift:I:3:n_neighb:I:1
 O               0.02679911      0.02869326      0.00000000       8       0       0       0       2
 H               0.77405772     -0.27720273      0.00000000       1       0       0       0       2
 H              -0.47807289      0.75076783      0.00000000       1       0       0       0       2
 3
 energy=-.23989740048426622 cutoff=3.63000000 nneightol=1.20000000 pbc="T T T" Lattice="15.00000000       0.00000000       0.00000000       0.00000000      15.00000000       0.00000000       0.00000000       0.00000000      15.00000000" Properties=species:S:1:pos:R:3:Z:I:1:map_shift:I:3:n_neighb:I:1
 O               0.02397739      0.03088380      0.00000000       8       0       0       0       2
 H               0.80995227     -0.27720317      0.00000000       1       0       0       0       2
 H              -0.46918469      0.71600284      0.00000000       1       0       0       0       2
 3
 energy=-.23933813684531735 cutoff=3.63000000 nneightol=1.20000000 pbc="T T T" Lattice="15.00000000       0.00000000       0.00000000       0.00000000      15.00000000       0.00000000       0.00000000       0.00000000      15.00000000" Properties=species:S:1:pos:R:3:Z:I:1:map_shift:I:3:n_neighb:I:1
 O               0.02115567      0.03307434      0.00000000       8       0       0       0       2
 H               0.84584683     -0.27720361      0.00000000       1       0       0       0       2
 H              -0.46029650      0.68123785      0.00000000       1       0       0       0       2
 3
 energy=-.23496963857507147 cutoff=3.63000000 nneightol=1.20000000 pbc="T T T" Lattice="15.00000000       0.00000000       0.00000000       0.00000000      15.00000000       0.00000000       0.00000000       0.00000000      15.00000000" Properties=species:S:1:pos:R:3:Z:I:1:map_shift:I:3:n_neighb:I:1
 O               0.01833394      0.03526489      0.00000000       8       0       0       0       2
 H               0.88174138     -0.27720405      0.00000000       1       0       0       0       2
 H              -0.45140831      0.64647286      0.00000000       1       0       0       0       2
 3
 energy=-.21686028760467035 cutoff=3.63000000 nneightol=1.20000000 pbc="T T T" Lattice="15.00000000       0.00000000       0.00000000       0.00000000      15.00000000       0.00000000       0.00000000       0.00000000      15.00000000" Properties=species:S:1:pos:R:3:Z:I:1:map_shift:I:3:n_neighb:I:1
 O               0.01551222      0.03745543      0.00000000       8       0       0       0       2
 H               0.91763593     -0.27720449      0.00000000       1       0       0       0       2
 H              -0.44252012      0.61170787      0.00000000       1       0       0       0       2
 3
 energy=-.16387028879650689 cutoff=3.63000000 nneightol=1.20000000 pbc="T T T" Lattice="15.00000000       0.00000000       0.00000000       0.00000000      15.00000000       0.00000000       0.00000000       0.00000000      15.00000000" Properties=species:S:1:pos:R:3:Z:I:1:map_shift:I:3:n_neighb:I:1
 O               0.01269050      0.03964598      0.00000000       8       0       0       0       2
 H               0.95353048     -0.27720493      0.00000000       1       0       0       0       2
 H              -0.43363193      0.57694287      0.00000000       1       0       0       0       2
 3
 energy=-.40693684978286626E-001 cutoff=3.63000000 nneightol=1.20000000 pbc="T T T" Lattice="15.00000000       0.00000000       0.00000000       0.00000000      15.00000000       0.00000000       0.00000000       0.00000000      15.00000000" Properties=species:S:1:pos:R:3:Z:I:1:map_shift:I:3:n_neighb:I:1
 O               0.00986878      0.04183652      0.00000000       8       0       0       0       2
 H               0.98942504     -0.27720537      0.00000000       1       0       0       0       2
 H              -0.42474374      0.54217788      0.00000000       1       0       0       0       2
 3
 energy=.20071500332975134 cutoff=3.63000000 nneightol=1.20000000 pbc="T T T" Lattice="15.00000000       0.00000000       0.00000000       0.00000000      15.00000000       0.00000000       0.00000000       0.00000000      15.00000000" Properties=species:S:1:pos:R:3:Z:I:1:map_shift:I:3:n_neighb:I:1
 O               0.00704705      0.04402707      0.00000000       8       0       0       0       2
 H               1.02531959     -0.27720581      0.00000000       1       0       0       0       2
 H              -0.41585555      0.50741289      0.00000000       1       0       0       0       2
 3
 energy=.61388477122646634 cutoff=3.63000000 nneightol=1.20000000 pbc="T T T" Lattice="15.00000000       0.00000000       0.00000000       0.00000000      15.00000000       0.00000000       0.00000000       0.00000000      15.00000000" Properties=species:S:1:pos:R:3:Z:I:1:map_shift:I:3:n_neighb:I:1