3
Lattice="15.0 0.0 0.0 0.0 15.0 0.0 0.0 0.0 15.0" Properties=species:S:1:pos:R:3 energy=0.0001692991 pbc="T T T"
O        0.00649142      -0.00419182       0.00000000
H        0.82390637       0.03798074       0.00000000
H       -0.20561521       0.95749316       0.00000000
3
Lattice="15.0 0.0 0.0 0.0 15.0 0.0 0.0 0.0 15.0" Properties=species:S:1:pos:R:3 energy=-0.0003611489 pbc="T T T"
O       -0.00492337      -0.00838898       0.00000000
H        1.03307520       0.02945725       0.00000000
H       -0.23362319       1.03262962       0.00000000
3
Lattice="15.0 0.0 0.0 0.0 15.0 0.0 0.0 0.0 15.0" Properties=species:S:1:pos:R:3 energy=-0.0023876687 pbc="T T T"
O        0.00351805       0.01816409       0.00000000
H        0.98592872      -0.12163265       0.00000000
H       -0.32045241       0.76230326       0.00000000
3
Lattice="15.0 0.0 0.0 0.0 15.0 0.0 0.0 0.0 15.0" Properties=species:S:1:pos:R:3 energy=-0.0006521507 pbc="T T T"
O        0.00677673       0.00523918       0.00000000
H        1.01930083      -0.14698063       0.00000000
H       -0.40554254       0.99277944       0.00000000
3
Lattice="15.0 0.0 0.0 0.0 15.0 0.0 0.0 0.0 15.0" Properties=species:S:1:pos:R:3 energy=-0.0173675869 pbc="T T T"
O       -0.01289702      -0.00010219       0.00000000
H        1.03712156       0.09847080       0.00000000
H       -0.11112037       0.83209818       0.00000000
3
Lattice="15.0 0.0 0.0 0.0 15.0 0.0 0.0 0.0 15.0" Properties=species:S:1:pos:R:3 energy=-0.0001260011 pbc="T T T"
O       -0.00713661       0.00599931       0.00000000
H        1.03833033       0.00731521       0.00000000
H       -0.20375342       0.82641902       0.00000000
3
Lattice="15.0 0.0 0.0 0.0 15.0 0.0 0.0 0.0 15.0" Properties=species:S:1:pos:R:3 energy=0.0513666269 pbc="T T T"
O       -0.00344885      -0.02072415       0.00000000
H        0.94734279       0.11672643       0.00000000
H       -0.17129001       1.14112784       0.00000000
3
Lattice="15.0 0.0 0.0 0.0 15.0 0.0 0.0 0.0 15.0" Properties=species:S:1:pos:R:3 energy=0.0034644718 pbc="T T T"
O       -0.00384617      -0.01579848       0.00000000
H        0.90053829       0.14244712       0.00000000
H       -0.11817916       1.03723289       0.00000000
3
Lattice="15.0 0.0 0.0 0.0 15.0 0.0 0.0 0.0 15.0" Properties=species:S:1:pos:R:3 energy=-0.0002067487 pbc="T T T"
O        0.00770916       0.00772820       0.00000000
H        0.99025564      -0.14376060       0.00000000
H       -0.39129580       0.95005670       0.00000000
3
Lattice="15.0 0.0 0.0 0.0 15.0 0.0 0.0 0.0 15.0" Properties=species:S:1:pos:R:3 energy=0.0355896806 pbc="T T T"
O       -0.00532813      -0.02022985       0.00000000
H        0.96016820       0.12836988       0.00000000
H       -0.15428962       1.12163946       0.00000000
3
Lattice="15.0 0.0 0.0 0.0 15.0 0.0 0.0 0.0 15.0" Properties=species:S:1:pos:R:3 energy=-0.0008301959 pbc="T T T"
O       -0.00157960       0.00360318       0.00000000
H        1.08434932      -0.08935393       0.00000000
H       -0.33796852       0.96111725       0.00000000
3
Lattice="15.0 0.0 0.0 0.0 15.0 0.0 0.0 0.0 15.0" Properties=species:S:1:pos:R:3 energy=-0.0067194215 pbc="T T T"
O       -0.00021897       0.01056384       0.00000000
H        0.99290231      -0.05704460       0.00000000
H       -0.26811510       0.81833653       0.00000000
3
Lattice="15.0 0.0 0.0 0.0 15.0 0.0 0.0 0.0 15.0" Properties=species:S:1:pos:R:3 energy=0.0095528511 pbc="T T T"
O       -0.00009379      -0.01280601       0.00000000
H        0.95125947       0.04738738       0.00000000
H       -0.22845584       1.08480068       0.00000000
3
Lattice="15.0 0.0 0.0 0.0 15.0 0.0 0.0 0.0 15.0" Properties=species:S:1:pos:R:3 energy=-0.0024911975 pbc="T T T"
O        0.00256021      -0.00100454       0.00000000
H        0.95029441      -0.02175735       0.00000000
H       -0.26961365       0.96664765       0.00000000
3
Lattice="15.0 0.0 0.0 0.0 15.0 0.0 0.0 0.0 15.0" Properties=species:S:1:pos:R:3 energy=-0.0049514097 pbc="T T T"
O       -0.00037210      -0.00247057       0.00000000
H        0.92859965       0.03584628       0.00000000
H       -0.20137960       0.93231062       0.00000000
3
Lattice="15.0 0.0 0.0 0.0 15.0 0.0 0.0 0.0 15.0" Properties=species:S:1:pos:R:3 energy=-0.0028914222 pbc="T T T"
O        0.00753613       0.01275235       0.00000000
H        0.94217807      -0.12012579       0.00000000
H       -0.34047157       0.84668468       0.00000000
3
Lattice="15.0 0.0 0.0 0.0 15.0 0.0 0.0 0.0 15.0" Properties=species:S:1:pos:R:3 energy=-0.0014961342 pbc="T T T"
O       -0.00130957      -0.00444232       0.00000000
H        0.97919732       0.01432242       0.00000000
H       -0.23709933       0.98512789       0.00000000
3
Lattice="15.0 0.0 0.0 0.0 15.0 0.0 0.0 0.0 15.0" Properties=species:S:1:pos:R:3 energy=-0.0002331500 pbc="T T T"
O       -0.00732909      -0.00784716       0.00000000
H        0.97833051       0.09990860       0.00000000
H       -0.14069618       0.95357855       0.00000000
3
Lattice="15.0 0.0 0.0 0.0 15.0 0.0 0.0 0.0 15.0" Properties=species:S:1:pos:R:3 energy=-0.0021134459 pbc="T T T"
O       -0.00725009       0.00286586       0.00000000
H        1.10995634      -0.03703212       0.00000000
H       -0.27357955       0.92049708       0.00000000
3
Lattice="15.0 0.0 0.0 0.0 15.0 0.0 0.0 0.0 15.0" Properties=species:S:1:pos:R:3 energy=0.0009461661 pbc="T T T"
O        0.00690020       0.01055216       0.00000000
H        0.96202574      -0.12076803       0.00000000
H       -0.35022656       0.88224560       0.00000000
3
Lattice="15.0 0.0 0.0 0.0 15.0 0.0 0.0 0.0 15.0" Properties=species:S:1:pos:R:3 energy=0.0024314772 pbc="T T T"
O       -0.00404598       0.00011911       0.00000000
H        0.97688781       0.03546623       0.00000000
H       -0.19136066       0.89159068       0.00000000
3
Lattice="15.0 0.0 0.0 0.0 15.0 0.0 0.0 0.0 15.0" Properties=species:S:1:pos:R:3 energy=-0.0030583423 pbc="T T T"
O        0.00842127       0.01023036       0.00000000
H        0.88302733      -0.07715550       0.00000000
H       -0.29536740       0.84373969       0.00000000
3
Lattice="15.0 0.0 0.0 0.0 15.0 0.0 0.0 0.0 15.0" Properties=species:S:1:pos:R:3 energy=-0.0019662246 pbc="T T T"
O        0.00642301      -0.00795205       0.00000000
H        0.83841392       0.03940678       0.00000000
H       -0.21903699       1.01574492       0.00000000
3
Lattice="15.0 0.0 0.0 0.0 15.0 0.0 0.0 0.0 15.0" Properties=species:S:1:pos:R:3 energy=-0.0010630842 pbc="T T T"
O        0.00466711      -0.00098884       0.00000000
H        0.88330516       0.00424642       0.00000000
H       -0.23606184       0.94039430       0.00000000
3
Lattice="15.0 0.0 0.0 0.0 15.0 0.0 0.0 0.0 15.0" Properties=species:S:1:pos:R:3 energy=-0.0061292995 pbc="T T T"
O       -0.00550209       0.00436406       0.00000000
H        1.12532110      -0.07522627       0.00000000
H       -0.31668723       0.93491397       0.00000000
3
Lattice="15.0 0.0 0.0 0.0 15.0 0.0 0.0 0.0 15.0" Properties=species:S:1:pos:R:3 energy=-0.0031638828 pbc="T T T"
O        0.00888681      -0.00126239       0.00000000
H        0.96120655      -0.10738741       0.00000000
H       -0.38093574       1.05637055       0.00000000
3
Lattice="15.0 0.0 0.0 0.0 15.0 0.0 0.0 0.0 15.0" Properties=species:S:1:pos:R:3 energy=-0.0068074833 pbc="T T T"
O        0.00128859       0.00386401       0.00000000
H        0.92755210      -0.00376667       0.00000000
H       -0.22668941       0.87138933       0.00000000
3
Lattice="15.0 0.0 0.0 0.0 15.0 0.0 0.0 0.0 15.0" Properties=species:S:1:pos:R:3 energy=0.0053152492 pbc="T T T"
O       -0.01163927      -0.00304569       0.00000000
H        1.05181751       0.08083352       0.00000000
H       -0.14577805       0.89645112       0.00000000
3
Lattice="15.0 0.0 0.0 0.0 15.0 0.0 0.0 0.0 15.0" Properties=species:S:1:pos:R:3 energy=0.0033008328 pbc="T T T"
O        0.00040376      -0.00811523       0.00000000
H        0.91593505       0.05390519       0.00000000
H       -0.20102789       1.00383653       0.00000000
3
Lattice="15.0 0.0 0.0 0.0 15.0 0.0 0.0 0.0 15.0" Properties=species:S:1:pos:R:3 energy=0.0001859126 pbc="T T T"
O        0.00583570       0.00099587       0.00000000
H        0.91941560      -0.04444963       0.00000000
H       -0.29071990       0.95759202       0.00000000
3
Lattice="15.0 0.0 0.0 0.0 15.0 0.0 0.0 0.0 15.0" Properties=species:S:1:pos:R:3 energy=0.0074182541 pbc="T T T"
O       -0.01211189      -0.00253374       0.00000000
H        1.11211551       0.03822214       0.00000000
H       -0.19857630       0.93093793       0.00000000
3
Lattice="15.0 0.0 0.0 0.0 15.0 0.0 0.0 0.0 15.0" Properties=species:S:1:pos:R:3 energy=0.0009706450 pbc="T T T"
O        0.00026138       0.00452419       0.00000000
H        0.96151594      -0.01956126       0.00000000
H       -0.24435106       0.87670654       0.00000000
3
Lattice="15.0 0.0 0.0 0.0 15.0 0.0 0.0 0.0 15.0" Properties=species:S:1:pos:R:3 energy=0.0061375672 pbc="T T T"
O       -0.01390773      -0.00368971       0.00000000
H        1.15365482       0.03174026       0.00000000
H       -0.21161448       0.95576615       0.00000000
3
Lattice="15.0 0.0 0.0 0.0 15.0 0.0 0.0 0.0 15.0" Properties=species:S:1:pos:R:3 energy=-0.0111132057 pbc="T T T"
O        0.00640737      -0.00711292       0.00000000
H        0.88146549       0.00352487       0.00000000
H       -0.26184131       1.03830962       0.00000000
3
Lattice="15.0 0.0 0.0 0.0 15.0 0.0 0.0 0.0 15.0" Properties=species:S:1:pos:R:3 energy=0.0010356521 pbc="T T T"
O        0.01220885       0.00584702       0.00000000
H        0.90498075      -0.12706922       0.00000000
H       -0.37743378       0.96322063       0.00000000
3
Lattice="15.0 0.0 0.0 0.0 15.0 0.0 0.0 0.0 15.0" Properties=species:S:1:pos:R:3 energy=0.0050866583 pbc="T T T"
O       -0.00022082       0.01163307       0.00000000
H        0.97212757      -0.04425879       0.00000000
H       -0.24731059       0.78858102       0.00000000
3
Lattice="15.0 0.0 0.0 0.0 15.0 0.0 0.0 0.0 15.0" Properties=species:S:1:pos:R:3 energy=-0.0083808100 pbc="T T T"
O        0.00226590      -0.00440942       0.00000000
H        0.90210709       0.03001701       0.00000000
H       -0.21675404       0.96891072       0.00000000
3
Lattice="15.0 0.0 0.0 0.0 15.0 0.0 0.0 0.0 15.0" Properties=species:S:1:pos:R:3 energy=-0.0020119134 pbc="T T T"
O        0.00922322      -0.00492991       0.00000000
H        0.82238452       0.00782157       0.00000000
H       -0.24744971       0.99936657       0.00000000
3
Lattice="15.0 0.0 0.0 0.0 15.0 0.0 0.0 0.0 15.0" Properties=species:S:1:pos:R:3 energy=-0.0099038842 pbc="T T T"
O       -0.00411721      -0.00757967       0.00000000
H        0.93487832       0.09322415       0.00000000
H       -0.14821909       0.95601759       0.00000000
3
Lattice="15.0 0.0 0.0 0.0 15.0 0.0 0.0 0.0 15.0" Properties=species:S:1:pos:R:3 energy=0.0003579136 pbc="T T T"
O       -0.00349034      -0.00961315       0.00000000
H        0.95920733       0.07301403       0.00000000
H       -0.18249748       1.00850085       0.00000000
3
Lattice="15.0 0.0 0.0 0.0 15.0 0.0 0.0 0.0 15.0" Properties=species:S:1:pos:R:3 energy=-0.0004895313 pbc="T T T"
O        0.00537023       0.01845490       0.00000000
H        0.96690787      -0.13060514       0.00000000
H       -0.33082728       0.76666036       0.00000000
3
Lattice="15.0 0.0 0.0 0.0 15.0 0.0 0.0 0.0 15.0" Properties=species:S:1:pos:R:3 energy=-0.0011700328 pbc="T T T"
O        0.00011085       0.00633059       0.00000000
H        0.98723038      -0.04336591       0.00000000
H       -0.26767712       0.87184260       0.00000000
3
Lattice="15.0 0.0 0.0 0.0 15.0 0.0 0.0 0.0 15.0" Properties=species:S:1:pos:R:3 energy=-0.0027763184 pbc="T T T"
O        0.00467463      -0.00825726       0.00000000
H        0.97893908      -0.04720546       0.00000000
H       -0.33181619       1.10720217       0.00000000
3
Lattice="15.0 0.0 0.0 0.0 15.0 0.0 0.0 0.0 15.0" Properties=species:S:1:pos:R:3 energy=0.0018742402 pbc="T T T"
O        0.00052241       0.01170109       0.00000000
H        1.03727852      -0.10422392       0.00000000
H       -0.32425870       0.84746731       0.00000000
3
Lattice="15.0 0.0 0.0 0.0 15.0 0.0 0.0 0.0 15.0" Properties=species:S:1:pos:R:3 energy=-0.0006616057 pbc="T T T"
O       -0.00368076       0.00514288       0.00000000
H        1.05126730      -0.04262187       0.00000000
H       -0.27153841       0.88994859       0.00000000
3
Lattice="15.0 0.0 0.0 0.0 15.0 0.0 0.0 0.0 15.0" Properties=species:S:1:pos:R:3 energy=-0.0051949061 pbc="T T T"
O        0.00171126       0.00711449       0.00000000
H        1.03700015      -0.10420690       0.00000000
H       -0.34284825       0.92024304       0.00000000
3
Lattice="15.0 0.0 0.0 0.0 15.0 0.0 0.0 0.0 15.0" Properties=species:S:1:pos:R:3 energy=-0.0167928443 pbc="T T T"
O       -0.00253753      -0.01224445       0.00000000
H        0.87592488       0.13423351       0.00000000
H       -0.11433524       0.98904128       0.00000000
3
Lattice="15.0 0.0 0.0 0.0 15.0 0.0 0.0 0.0 15.0" Properties=species:S:1:pos:R:3 energy=0.0043946459 pbc="T T T"
O       -0.00590132       0.00805431       0.00000000
H        0.99329207       0.02058953       0.00000000
H       -0.17831973       0.78052994       0.00000000
3
Lattice="15.0 0.0 0.0 0.0 15.0 0.0 0.0 0.0 15.0" Properties=species:S:1:pos:R:3 energy=0.0055246790 pbc="T T T"
O       -0.01332533      -0.00497772       0.00000000
H        1.12059375       0.05429385       0.00000000
H       -0.18779605       0.95365393       0.00000000
3
Lattice="15.0 0.0 0.0 0.0 15.0 0.0 0.0 0.0 15.0" Properties=species:S:1:pos:R:3 energy=0.0227254481 pbc="T T T"
O       -0.00367129      -0.01732186       0.00000000
H        0.95733712       0.10098632       0.00000000
H       -0.17775461       1.10287126       0.00000000
3
Lattice="15.0 0.0 0.0 0.0 15.0 0.0 0.0 0.0 15.0" Properties=species:S:1:pos:R:3 energy=-0.0005848070 pbc="T T T"
O       -0.01113691      -0.01113286       0.00000000
H        1.07984370       0.07836198       0.00000000
H       -0.18177698       1.02727218       0.00000000
3
Lattice="15.0 0.0 0.0 0.0 15.0 0.0 0.0 0.0 15.0" Properties=species:S:1:pos:R:3 energy=-0.0007946477 pbc="T T T"
O        0.00187806      -0.00612123       0.00000000
H        0.90533268       0.03768586       0.00000000
H       -0.21382416       0.98840962       0.00000000
3
Lattice="15.0 0.0 0.0 0.0 15.0 0.0 0.0 0.0 15.0" Properties=species:S:1:pos:R:3 energy=-0.0014941266 pbc="T T T"
O        0.00192022      -0.00112416       0.00000000
H        1.02998535      -0.07537509       0.00000000
H       -0.33914888       1.02216452       0.00000000
3
Lattice="15.0 0.0 0.0 0.0 15.0 0.0 0.0 0.0 15.0" Properties=species:S:1:pos:R:3 energy=-0.0036979392 pbc="T T T"
O        0.00777104      -0.00606460       0.00000000
H        0.90144602      -0.03209950       0.00000000
H       -0.30346509       1.05729661       0.00000000
3
Lattice="15.0 0.0 0.0 0.0 15.0 0.0 0.0 0.0 15.0" Properties=species:S:1:pos:R:3 energy=0.0007706414 pbc="T T T"
O        0.01643592       0.00684233       0.00000000
H        0.83505694      -0.12800229       0.00000000
H       -0.37459664       0.94835719       0.00000000
3
Lattice="15.0 0.0 0.0 0.0 15.0 0.0 0.0 0.0 15.0" Properties=species:S:1:pos:R:3 energy=-0.0034191159 pbc="T T T"
O       -0.00739699       0.00599505       0.00000000
H        1.05791982      -0.00467414       0.00000000
H       -0.21921079       0.83847610       0.00000000
3
Lattice="15.0 0.0 0.0 0.0 15.0 0.0 0.0 0.0 15.0" Properties=species:S:1:pos:R:3 energy=-0.0020464526 pbc="T T T"
O        0.01042310       0.00853000       0.00000000
H        0.89197950      -0.10341990       0.00000000
H       -0.33609082       0.89699023       0.00000000
3
Lattice="15.0 0.0 0.0 0.0 15.0 0.0 0.0 0.0 15.0" Properties=species:S:1:pos:R:3 energy=0.0029114584 pbc="T T T"
O       -0.00141475      -0.01206975       0.00000000
H        0.99208812       0.02964245       0.00000000
H       -0.24832048       1.09086087       0.00000000
3
Lattice="15.0 0.0 0.0 0.0 15.0 0.0 0.0 0.0 15.0" Properties=species:S:1:pos:R:3 energy=-0.0020896820 pbc="T T T"
O       -0.00645889      -0.00005720       0.00000000
H        1.01979565       0.03243961       0.00000000
H       -0.19597384       0.89741569       0.00000000
3
Lattice="15.0 0.0 0.0 0.0 15.0 0.0 0.0 0.0 15.0" Properties=species:S:1:pos:R:3 energy=0.0008631107 pbc="T T T"
O       -0.00888434       0.00216800       0.00000000
H        1.10813598      -0.01327909       0.00000000
H       -0.24582178       0.90781947       0.00000000
3
Lattice="15.0 0.0 0.0 0.0 15.0 0.0 0.0 0.0 15.0" Properties=species:S:1:pos:R:3 energy=0.0149624307 pbc="T T T"
O        0.00040958      -0.01535189       0.00000000
H        0.95122093       0.04923578       0.00000000
H       -0.23640605       1.12335714       0.00000000
3
Lattice="15.0 0.0 0.0 0.0 15.0 0.0 0.0 0.0 15.0" Properties=species:S:1:pos:R:3 energy=0.0000948421 pbc="T T T"
O        0.00108662       0.00331366       0.00000000
H        1.07647733      -0.11518737       0.00000000
H       -0.37241204       0.99154564       0.00000000
3
Lattice="15.0 0.0 0.0 0.0 15.0 0.0 0.0 0.0 15.0" Properties=species:S:1:pos:R:3 energy=0.0048371646 pbc="T T T"
O       -0.00409967       0.00904597       0.00000000
H        1.00220420      -0.01165924       0.00000000
H       -0.21582630       0.79704068       0.00000000
3
Lattice="15.0 0.0 0.0 0.0 15.0 0.0 0.0 0.0 15.0" Properties=species:S:1:pos:R:3 energy=-0.0001359243 pbc="T T T"
O        0.00992388       0.00308686       0.00000000
H        0.85066960      -0.04803808       0.00000000
H       -0.28685630       0.92799455       0.00000000
3
Lattice="15.0 0.0 0.0 0.0 15.0 0.0 0.0 0.0 15.0" Properties=species:S:1:pos:R:3 energy=-0.0000490447 pbc="T T T"
O        0.00311838      -0.00230831       0.00000000
H        0.94845649      -0.02310096       0.00000000
H       -0.27663439       0.98868304       0.00000000
3
Lattice="15.0 0.0 0.0 0.0 15.0 0.0 0.0 0.0 15.0" Properties=species:S:1:pos:R:3 energy=0.0011086718 pbc="T T T"
O        0.00986356       0.00416693       0.00000000
H        0.97448593      -0.14684425       0.00000000
H       -0.40971786       1.00966030       0.00000000
3
Lattice="15.0 0.0 0.0 0.0 15.0 0.0 0.0 0.0 15.0" Properties=species:S:1:pos:R:3 energy=-0.0066998158 pbc="T T T"
O        0.00132777      -0.00061429       0.00000000
H        0.96173164      -0.01667972       0.00000000
H       -0.26149105       0.95537651       0.00000000
3
Lattice="15.0 0.0 0.0 0.0 15.0 0.0 0.0 0.0 15.0" Properties=species:S:1:pos:R:3 energy=0.0099398791 pbc="T T T"
O       -0.01255565      -0.00447146       0.00000000
H        1.07175475       0.08113776       0.00000000
H       -0.15117171       0.91877496       0.00000000
3
Lattice="15.0 0.0 0.0 0.0 15.0 0.0 0.0 0.0 15.0" Properties=species:S:1:pos:R:3 energy=-0.0005634436 pbc="T T T"
O       -0.00955032      -0.00857512       0.00000000
H        1.06713999       0.06061419       0.00000000
H       -0.19425409       1.00442675       0.00000000
3
Lattice="15.0 0.0 0.0 0.0 15.0 0.0 0.0 0.0 15.0" Properties=species:S:1:pos:R:3 energy=0.0017202045 pbc="T T T"
O       -0.00579120      -0.01502135       0.00000000
H        0.94252627       0.13136415       0.00000000
H       -0.12929854       1.03598234       0.00000000
3
Lattice="15.0 0.0 0.0 0.0 15.0 0.0 0.0 0.0 15.0" Properties=species:S:1:pos:R:3 energy=0.0108368219 pbc="T T T"
O       -0.01310983       0.00016860       0.00000000
H        1.11360137       0.04085192       0.00000000
H       -0.18422410       0.88541999       0.00000000
3
Lattice="15.0 0.0 0.0 0.0 15.0 0.0 0.0 0.0 15.0" Properties=species:S:1:pos:R:3 energy=0.0008364033 pbc="T T T"
O       -0.00094879      -0.00696088       0.00000000
H        1.02294996      -0.01616289       0.00000000
H       -0.28657861       1.05558497       0.00000000
3
Lattice="15.0 0.0 0.0 0.0 15.0 0.0 0.0 0.0 15.0" Properties=species:S:1:pos:R:3 energy=-0.0010428629 pbc="T T T"
O        0.00064879       0.00879912       0.00000000
H        1.06648468      -0.11931664       0.00000000
H       -0.35547096       0.90861670       0.00000000
3
Lattice="15.0 0.0 0.0 0.0 15.0 0.0 0.0 0.0 15.0" Properties=species:S:1:pos:R:3 energy=0.0167925171 pbc="T T T"
O       -0.01416975      -0.00359557       0.00000000
H        1.10510139       0.07237567       0.00000000
H       -0.15890154       0.91363632       0.00000000
3
Lattice="15.0 0.0 0.0 0.0 15.0 0.0 0.0 0.0 15.0" Properties=species:S:1:pos:R:3 energy=-0.0059230169 pbc="T T T"
O       -0.00723807       0.00608529       0.00000000
H        1.16236527      -0.08802139       0.00000000
H       -0.32618059       0.92039206       0.00000000
3
Lattice="15.0 0.0 0.0 0.0 15.0 0.0 0.0 0.0 15.0" Properties=species:S:1:pos:R:3 energy=-0.0087974323 pbc="T T T"
O       -0.00868575       0.00381274       0.00000000
H        1.15233145      -0.05522791       0.00000000
H       -0.29317013       0.92366533       0.00000000
3
Lattice="15.0 0.0 0.0 0.0 15.0 0.0 0.0 0.0 15.0" Properties=species:S:1:pos:R:3 energy=-0.0010003856 pbc="T T T"
O       -0.01044318      -0.01190125       0.00000000
H        1.06571884       0.08320183       0.00000000
H       -0.17866211       1.03462715       0.00000000
3
Lattice="15.0 0.0 0.0 0.0 15.0 0.0 0.0 0.0 15.0" Properties=species:S:1:pos:R:3 energy=0.0059506350 pbc="T T T"
O       -0.01216706       0.00067179       0.00000000
H        1.13465392       0.01129986       0.00000000
H       -0.22023992       0.90698642       0.00000000
3
Lattice="15.0 0.0 0.0 0.0 15.0 0.0 0.0 0.0 15.0" Properties=species:S:1:pos:R:3 energy=-0.0000087573 pbc="T T T"
O       -0.00529694      -0.01035585       0.00000000
H        0.97125198       0.08826585       0.00000000
H       -0.16586963       1.00503608       0.00000000
3
Lattice="15.0 0.0 0.0 0.0 15.0 0.0 0.0 0.0 15.0" Properties=species:S:1:pos:R:3 energy=-0.0201772031 pbc="T T T"
O       -0.00176323      -0.01274449       0.00000000
H        0.85160801       0.14514928       0.00000000
H       -0.10230677       0.98606129       0.00000000
3
Lattice="15.0 0.0 0.0 0.0 15.0 0.0 0.0 0.0 15.0" Properties=species:S:1:pos:R:3 energy=-0.0030444111 pbc="T T T"
O        0.00547041       0.01677274       0.00000000
H        0.95611049      -0.11815484       0.00000000
H       -0.32161943       0.78090706       0.00000000
3
Lattice="15.0 0.0 0.0 0.0 15.0 0.0 0.0 0.0 15.0" Properties=species:S:1:pos:R:3 energy=0.0005270700 pbc="T T T"
O       -0.00426794      -0.00751603       0.00000000
H        0.97400859       0.06449572       0.00000000
H       -0.18495783       0.98373643       0.00000000
3
Lattice="15.0 0.0 0.0 0.0 15.0 0.0 0.0 0.0 15.0" Properties=species:S:1:pos:R:3 energy=0.0003168739 pbc="T T T"
O       -0.01309540      -0.01697326       0.00000000
H        1.06003066       0.13628667       0.00000000
H       -0.13087974       1.06203858       0.00000000
3
Lattice="15.0 0.0 0.0 0.0 15.0 0.0 0.0 0.0 15.0" Properties=species:S:1:pos:R:3 energy=-0.0423745022 pbc="T T T"
O       -0.01210714      -0.00016645       0.00000000
H        0.99353394       0.12278559       0.00000000
H       -0.08006811       0.80880289       0.00000000
3
Lattice="15.0 0.0 0.0 0.0 15.0 0.0 0.0 0.0 15.0" Properties=species:S:1:pos:R:3 energy=0.0207544259 pbc="T T T"
O       -0.01611300      -0.00667461       0.00000000
H        1.14396286       0.07584942       0.00000000
H       -0.16692209       0.95902930       0.00000000
3
Lattice="15.0 0.0 0.0 0.0 15.0 0.0 0.0 0.0 15.0" Properties=species:S:1:pos:R:3 energy=-0.0003707916 pbc="T T T"
O       -0.01134032      -0.00251850       0.00000000
H        1.03172379       0.09109126       0.00000000
H       -0.13042872       0.87782634       0.00000000
3
Lattice="15.0 0.0 0.0 0.0 15.0 0.0 0.0 0.0 15.0" Properties=species:S:1:pos:R:3 energy=-0.0017947848 pbc="T T T"
O        0.00529177      -0.00839460       0.00000000
H        0.85202220       0.04417555       0.00000000
H       -0.21469146       1.01799971       0.00000000
3
Lattice="15.0 0.0 0.0 0.0 15.0 0.0 0.0 0.0 15.0" Properties=species:S:1:pos:R:3 energy=-0.0061858379 pbc="T T T"
O       -0.00391049       0.00291167       0.00000000
H        0.96274922       0.03597610       0.00000000
H       -0.17937242       0.84676077       0.00000000
3
Lattice="15.0 0.0 0.0 0.0 15.0 0.0 0.0 0.0 15.0" Properties=species:S:1:pos:R:3 energy=-0.0022933810 pbc="T T T"
O        0.00671457       0.00278350       0.00000000
H        0.88890173      -0.03721883       0.00000000
H       -0.27415408       0.92198993       0.00000000
3
Lattice="15.0 0.0 0.0 0.0 15.0 0.0 0.0 0.0 15.0" Properties=species:S:1:pos:R:3 energy=-0.0004622190 pbc="T T T"
O        0.00205803      -0.00246080       0.00000000
H        0.99157468      -0.04303491       0.00000000
H       -0.30292444       1.01103739       0.00000000
3
Lattice="15.0 0.0 0.0 0.0 15.0 0.0 0.0 0.0 15.0" Properties=species:S:1:pos:R:3 energy=-0.0085523930 pbc="T T T"
O       -0.00873470       0.00347682       0.00000000
H        1.15628310      -0.05663469       0.00000000
H       -0.29634492       0.93040355       0.00000000
3
Lattice="15.0 0.0 0.0 0.0 15.0 0.0 0.0 0.0 15.0" Properties=species:S:1:pos:R:3 energy=-0.0008323892 pbc="T T T"
O        0.00676571      -0.00346105       0.00000000
H        0.82084594       0.03467420       0.00000000
H       -0.20690812       0.94920185       0.00000000
3
Lattice="15.0 0.0 0.0 0.0 15.0 0.0 0.0 0.0 15.0" Properties=species:S:1:pos:R:3 energy=-0.0028629027 pbc="T T T"
O       -0.00344578      -0.00863342       0.00000000
H        0.87843807       0.13209696       0.00000000
H       -0.10243390       0.93386806       0.00000000
3
Lattice="15.0 0.0 0.0 0.0 15.0 0.0 0.0 0.0 15.0" Properties=species:S:1:pos:R:3 energy=0.0239831734 pbc="T T T"
O       -0.00634443      -0.01940417       0.00000000
H        0.97045533       0.13030477       0.00000000
H       -0.14844740       1.10660045       0.00000000
3
Lattice="15.0 0.0 0.0 0.0 15.0 0.0 0.0 0.0 15.0" Properties=species:S:1:pos:R:3 energy=0.0097254546 pbc="T T T"
O       -0.00361434       0.01166662       0.00000000
H        0.98732982      -0.01434777       0.00000000
H       -0.20865457       0.75813744       0.00000000
3
Lattice="15.0 0.0 0.0 0.0 15.0 0.0 0.0 0.0 15.0" Properties=species:S:1:pos:R:3 energy=-0.0267670392 pbc="T T T"
O       -0.01013508      -0.00354574       0.00000000
H        0.95150459       0.14176679       0.00000000
H       -0.06933622       0.84345320       0.00000000
3
Lattice="15.0 0.0 0.0 0.0 15.0 0.0 0.0 0.0 15.0" Properties=species:S:1:pos:R:3 energy=-0.0040856802 pbc="T T T"
O       -0.00366387       0.00963125       0.00000000
H        1.05499743      -0.05986940       0.00000000
H       -0.27553721       0.83596249       0.00000000
3
Lattice="15.0 0.0 0.0 0.0 15.0 0.0 0.0 0.0 15.0" Properties=species:S:1:pos:R:3 energy=-0.0061736926 pbc="T T T"
O        0.01224122       0.01122993       0.00000000
H        0.89892195      -0.13972477       0.00000000
H       -0.37188908       0.89044543       0.00000000
3
Lattice="15.0 0.0 0.0 0.0 15.0 0.0 0.0 0.0 15.0" Properties=species:S:1:pos:R:3 energy=-0.0038490563 pbc="T T T"
O       -0.00413110       0.00786293       0.00000000
H        1.03261303      -0.03115733       0.00000000
H       -0.24573681       0.83531475       0.00000000
3
Lattice="15.0 0.0 0.0 0.0 15.0 0.0 0.0 0.0 15.0" Properties=species:S:1:pos:R:3 energy=-0.0050672659 pbc="T T T"
O       -0.00486797      -0.00502235       0.00000000
H        0.91861185       0.10704979       0.00000000
H       -0.12003713       0.90160523       0.00000000
3
Lattice="15.0 0.0 0.0 0.0 15.0 0.0 0.0 0.0 15.0" Properties=species:S:1:pos:R:3 energy=0.0009647918 pbc="T T T"
O       -0.00670751      -0.01310072       0.00000000
H        1.01941055       0.07690254       0.00000000
H       -0.19164163       1.05996287       0.00000000
3
Lattice="15.0 0.0 0.0 0.0 15.0 0.0 0.0 0.0 15.0" Properties=species:S:1:pos:R:3 energy=-0.0080239276 pbc="T T T"
O        0.00163562       0.01521632       0.00000000
H        1.01495217      -0.11168268       0.00000000
H       -0.31960014       0.79913674       0.00000000
3
Lattice="15.0 0.0 0.0 0.0 15.0 0.0 0.0 0.0 15.0" Properties=species:S:1:pos:R:3 energy=0.0085077513 pbc="T T T"
O       -0.00791656      -0.01810906       0.00000000
H        1.01933603       0.10764189       0.00000000
H       -0.17237777       1.10870930       0.00000000
3
Lattice="15.0 0.0 0.0 0.0 15.0 0.0 0.0 0.0 15.0" Properties=species:S:1:pos:R:3 energy=-0.0059979377 pbc="T T T"
O        0.00374692      -0.00397785       0.00000000
H        1.00287054      -0.06784009       0.00000000
H       -0.34102485       1.05991953       0.00000000
3
Lattice="15.0 0.0 0.0 0.0 15.0 0.0 0.0 0.0 15.0" Properties=species:S:1:pos:R:3 energy=0.0049454019 pbc="T T T"
O       -0.00913005       0.00373209       0.00000000
H        1.09024903      -0.00128968       0.00000000
H       -0.22403487       0.87100665       0.00000000
3
Lattice="15.0 0.0 0.0 0.0 15.0 0.0 0.0 0.0 15.0" Properties=species:S:1:pos:R:3 energy=-0.0013447610 pbc="T T T"
O        0.00053637      -0.00260059       0.00000000
H        1.00076344      -0.03097683       0.00000000
H       -0.28796310       1.00119788       0.00000000
3
Lattice="15.0 0.0 0.0 0.0 15.0 0.0 0.0 0.0 15.0" Properties=species:S:1:pos:R:3 energy=-0.0135121483 pbc="T T T"
O        0.00187628      -0.00680415       0.00000000
H        0.87863802       0.06058872       0.00000000
H       -0.18710062       0.97634498       0.00000000
3
Lattice="15.0 0.0 0.0 0.0 15.0 0.0 0.0 0.0 15.0" Properties=species:S:1:pos:R:3 energy=0.0089009395 pbc="T T T"
O       -0.00717038      -0.01795394       0.00000000
H        0.98645539       0.12348977       0.00000000
H       -0.15133917       1.09039940       0.00000000
3
Lattice="15.0 0.0 0.0 0.0 15.0 0.0 0.0 0.0 15.0" Properties=species:S:1:pos:R:3 energy=0.0010377934 pbc="T T T"