3
Lattice="15.0 0.0 0.0 0.0 15.0 0.0 0.0 0.0 15.0" Properties=species:S:1:pos:R:3 energy=-0.3519991623 pbc="T T T"
O       -0.01882049      -0.00843246       0.00000000
H        1.15205219       0.10847381       0.00000000
H       -0.13204084       0.95430309       0.00000000
3
Lattice="15.0 0.0 0.0 0.0 15.0 0.0 0.0 0.0 15.0" Properties=species:S:1:pos:R:3 energy=-0.2555318842 pbc="T T T"
O       -0.00952717       0.00459805       0.00000000
H        1.12607601      -0.02694474       0.00000000
H       -0.25355999       0.88291853       0.00000000
3
Lattice="15.0 0.0 0.0 0.0 15.0 0.0 0.0 0.0 15.0" Properties=species:S:1:pos:R:3 energy=0.0015833966 pbc="T T T"
O        0.00302507      -0.00318218       0.00000000
H        0.91244741       0.00876448       0.00000000
H       -0.23914355       0.97068632       0.00000000
3
Lattice="15.0 0.0 0.0 0.0 15.0 0.0 0.0 0.0 15.0" Properties=species:S:1:pos:R:3 energy=0.0074557201 pbc="T T T"
O        0.01032034       0.00602184       0.00000000
H        0.90703106      -0.10593810       0.00000000
H       -0.34951141       0.93931492       0.00000000
3
Lattice="15.0 0.0 0.0 0.0 15.0 0.0 0.0 0.0 15.0" Properties=species:S:1:pos:R:3 energy=-0.2132119915 pbc="T T T"
O        0.00385349      -0.00829444       0.00000000
H        0.97212755      -0.03167931       0.00000000
H       -0.31197219       1.09226584       0.00000000
3
Lattice="15.0 0.0 0.0 0.0 15.0 0.0 0.0 0.0 15.0" Properties=species:S:1:pos:R:3 energy=0.0039005291 pbc="T T T"
O       -0.00027787      -0.00318747       0.00000000
H        0.89149749       0.06575465       0.00000000
H       -0.16577213       0.91377968       0.00000000
3
Lattice="15.0 0.0 0.0 0.0 15.0 0.0 0.0 0.0 15.0" Properties=species:S:1:pos:R:3 energy=-0.0523994680 pbc="T T T"
O       -0.00135203      -0.00827914       0.00000000
H        1.01300456       0.00068328       0.00000000
H       -0.27023305       1.05966041       0.00000000
3
Lattice="15.0 0.0 0.0 0.0 15.0 0.0 0.0 0.0 15.0" Properties=species:S:1:pos:R:3 energy=0.0039719110 pbc="T T T"
O        0.00531559       0.00540861       0.00000000
H        0.88707677      -0.02683236       0.00000000
H       -0.25012611       0.86994108       0.00000000
3
Lattice="15.0 0.0 0.0 0.0 15.0 0.0 0.0 0.0 15.0" Properties=species:S:1:pos:R:3 energy=-0.0322831568 pbc="T T T"
O       -0.01168699      -0.00420414       0.00000000
H        1.02503911       0.10586594       0.00000000
H       -0.11824161       0.88980386       0.00000000
3
Lattice="15.0 0.0 0.0 0.0 15.0 0.0 0.0 0.0 15.0" Properties=species:S:1:pos:R:3 energy=-0.1204614848 pbc="T T T"
O       -0.00486185       0.00518129       0.00000000
H        1.09789165      -0.06439215       0.00000000
H       -0.29941869       0.91110955       0.00000000
3
Lattice="15.0 0.0 0.0 0.0 15.0 0.0 0.0 0.0 15.0" Properties=species:S:1:pos:R:3 energy=-0.0142545292 pbc="T T T"
O       -0.00133429      -0.01123150       0.00000000
H        0.89236848       0.10344425       0.00000000
H       -0.14987584       1.00375461       0.00000000
3
Lattice="15.0 0.0 0.0 0.0 15.0 0.0 0.0 0.0 15.0" Properties=species:S:1:pos:R:3 energy=-0.0308488323 pbc="T T T"
O       -0.00184489       0.00684184       0.00000000
H        1.04131050      -0.06286893       0.00000000
H       -0.29071887       0.88323193       0.00000000
3
Lattice="15.0 0.0 0.0 0.0 15.0 0.0 0.0 0.0 15.0" Properties=species:S:1:pos:R:3 energy=-0.0006217466 pbc="T T T"
O        0.00680887       0.00828559       0.00000000
H        0.99896301      -0.14118316       0.00000000
H       -0.38571479       0.93863318       0.00000000
3
Lattice="15.0 0.0 0.0 0.0 15.0 0.0 0.0 0.0 15.0" Properties=species:S:1:pos:R:3 energy=-0.0853647092 pbc="T T T"
O       -0.01396278      -0.00884216       0.00000000
H        1.07131953       0.11258920       0.00000000
H       -0.12840341       0.95668956       0.00000000
3
Lattice="15.0 0.0 0.0 0.0 15.0 0.0 0.0 0.0 15.0" Properties=species:S:1:pos:R:3 energy=-0.3468758897 pbc="T T T"
O       -0.00666376       0.00860862       0.00000000
H        1.15371534      -0.09633320       0.00000000
H       -0.32664552       0.88865670       0.00000000
3
Lattice="15.0 0.0 0.0 0.0 15.0 0.0 0.0 0.0 15.0" Properties=species:S:1:pos:R:3 energy=-0.0555433063 pbc="T T T"
O        0.00052429      -0.01279885       0.00000000
H        0.87904136       0.09582658       0.00000000
H       -0.16604594       1.03624715       0.00000000
3
Lattice="15.0 0.0 0.0 0.0 15.0 0.0 0.0 0.0 15.0" Properties=species:S:1:pos:R:3 energy=-0.0567739567 pbc="T T T"
O       -0.00573999       0.00219572       0.00000000
H        1.05940444      -0.01427620       0.00000000
H       -0.24699334       0.90837634       0.00000000
3
Lattice="15.0 0.0 0.0 0.0 15.0 0.0 0.0 0.0 15.0" Properties=species:S:1:pos:R:3 energy=-0.0005896903 pbc="T T T"
O       -0.00101281      -0.00087739       0.00000000
H        0.89761247       0.06278467       0.00000000
H       -0.16022309       0.88008697       0.00000000
3
Lattice="15.0 0.0 0.0 0.0 15.0 0.0 0.0 0.0 15.0" Properties=species:S:1:pos:R:3 energy=-0.0033110910 pbc="T T T"
O        0.00190082       0.00468595       0.00000000
H        1.01572025      -0.08236633       0.00000000
H       -0.32457608       0.93694492       0.00000000
3
Lattice="15.0 0.0 0.0 0.0 15.0 0.0 0.0 0.0 15.0" Properties=species:S:1:pos:R:3 energy=-0.0026401971 pbc="T T T"
O       -0.00669108      -0.00937814       0.00000000
H        1.04158244       0.04775324       0.00000000
H       -0.21407511       1.03003221       0.00000000
3
Lattice="15.0 0.0 0.0 0.0 15.0 0.0 0.0 0.0 15.0" Properties=species:S:1:pos:R:3 energy=-0.0105174574 pbc="T T T"
O       -0.01272499      -0.01332952       0.00000000
H        1.05503488       0.12411975       0.00000000
H       -0.13176296       1.01637667       0.00000000
3
Lattice="15.0 0.0 0.0 0.0 15.0 0.0 0.0 0.0 15.0" Properties=species:S:1:pos:R:3 energy=0.0082863132 pbc="T T T"
O        0.00006879       0.00738674       0.00000000
H        0.99707703      -0.05382167       0.00000000
H       -0.27685658       0.86553656       0.00000000
3
Lattice="15.0 0.0 0.0 0.0 15.0 0.0 0.0 0.0 15.0" Properties=species:S:1:pos:R:3 energy=-0.1496449438 pbc="T T T"
O        0.00805575      -0.00024677       0.00000000
H        1.00117013      -0.13137829       0.00000000
H       -0.40771043       1.06424306       0.00000000
3
Lattice="15.0 0.0 0.0 0.0 15.0 0.0 0.0 0.0 15.0" Properties=species:S:1:pos:R:3 energy=-0.0014532949 pbc="T T T"
O        0.00599499       0.00892574       0.00000000
H        0.98272058      -0.12055742       0.00000000
H       -0.35655500       0.90784748       0.00000000
3
Lattice="15.0 0.0 0.0 0.0 15.0 0.0 0.0 0.0 15.0" Properties=species:S:1:pos:R:3 energy=-0.0011864268 pbc="T T T"
O       -0.00998430      -0.01295045       0.00000000
H        0.99891045       0.13273091       0.00000000
H       -0.11913515       1.00174907       0.00000000
3
Lattice="15.0 0.0 0.0 0.0 15.0 0.0 0.0 0.0 15.0" Properties=species:S:1:pos:R:3 energy=-0.0000384299 pbc="T T T"
O       -0.00566822      -0.00647833       0.00000000
H        0.92890687       0.11350550       0.00000000
H       -0.11763141       0.91825698       0.00000000
3
Lattice="15.0 0.0 0.0 0.0 15.0 0.0 0.0 0.0 15.0" Properties=species:S:1:pos:R:3 energy=-0.0816118508 pbc="T T T"
O        0.01045421      -0.00358769       0.00000000
H        0.87319650      -0.05103519       0.00000000
H       -0.31779998       1.03692185       0.00000000
3
Lattice="15.0 0.0 0.0 0.0 15.0 0.0 0.0 0.0 15.0" Properties=species:S:1:pos:R:3 energy=0.0002372524 pbc="T T T"
O       -0.00641587      -0.00631665       0.00000000
H        0.93732581       0.11567257       0.00000000
H       -0.11418458       0.91352403       0.00000000
3
Lattice="15.0 0.0 0.0 0.0 15.0 0.0 0.0 0.0 15.0" Properties=species:S:1:pos:R:3 energy=-0.1775908468 pbc="T T T"
O        0.00393061      -0.00780825       0.00000000
H        0.96033812      -0.02500696       0.00000000
H       -0.30140659       1.07787728       0.00000000
3
Lattice="15.0 0.0 0.0 0.0 15.0 0.0 0.0 0.0 15.0" Properties=species:S:1:pos:R:3 energy=-0.0000819545 pbc="T T T"
O        0.00973226       0.01074085       0.00000000
H        0.94189807      -0.14063516       0.00000000
H       -0.37504612       0.89911814       0.00000000
3
Lattice="15.0 0.0 0.0 0.0 15.0 0.0 0.0 0.0 15.0" Properties=species:S:1:pos:R:3 energy=-0.0918090240 pbc="T T T"
O       -0.00018838       0.01568504       0.00000000
H        1.07753431      -0.13927710       0.00000000
H       -0.35323474       0.81929263       0.00000000
3
Lattice="15.0 0.0 0.0 0.0 15.0 0.0 0.0 0.0 15.0" Properties=species:S:1:pos:R:3 energy=0.0376893461 pbc="T T T"
O        0.00715343       0.00078031       0.00000000
H        0.88045495      -0.02975622       0.00000000
H       -0.27267214       0.94631939       0.00000000
3
Lattice="15.0 0.0 0.0 0.0 15.0 0.0 0.0 0.0 15.0" Properties=species:S:1:pos:R:3 energy=-0.0412454853 pbc="T T T"
O       -0.00967972      -0.00647787       0.00000000
H        1.07455049       0.04984607       0.00000000
H       -0.19961129       0.98191016       0.00000000
3
Lattice="15.0 0.0 0.0 0.0 15.0 0.0 0.0 0.0 15.0" Properties=species:S:1:pos:R:3 energy=0.0153562251 pbc="T T T"
O       -0.01388184      -0.00307093       0.00000000
H        1.02140779       0.13216431       0.00000000
H       -0.07977583       0.84552050       0.00000000
3
Lattice="15.0 0.0 0.0 0.0 15.0 0.0 0.0 0.0 15.0" Properties=species:S:1:pos:R:3 energy=0.0229556535 pbc="T T T"
O       -0.00086524       0.00359124       0.00000000
H        0.93553852       0.01743487       0.00000000
H       -0.20049255       0.85451671       0.00000000
3
Lattice="15.0 0.0 0.0 0.0 15.0 0.0 0.0 0.0 15.0" Properties=species:S:1:pos:R:3 energy=-0.0534231055 pbc="T T T"
O       -0.00125652      -0.01035359       0.00000000
H        0.94495625       0.05888388       0.00000000
H       -0.20369902       1.03438222       0.00000000
3
Lattice="15.0 0.0 0.0 0.0 15.0 0.0 0.0 0.0 15.0" Properties=species:S:1:pos:R:3 energy=-0.0882548349 pbc="T T T"
O       -0.00084053       0.00729393       0.00000000
H        1.11157191      -0.13123073       0.00000000
H       -0.37692186       0.94441941       0.00000000
3
Lattice="15.0 0.0 0.0 0.0 15.0 0.0 0.0 0.0 15.0" Properties=species:S:1:pos:R:3 energy=-0.0005397811 pbc="T T T"
O        0.00949952       0.01036113       0.00000000
H        0.93681511      -0.13262344       0.00000000
H       -0.36626930       0.89713277       0.00000000
3
Lattice="15.0 0.0 0.0 0.0 15.0 0.0 0.0 0.0 15.0" Properties=species:S:1:pos:R:3 energy=-0.3518029651 pbc="T T T"
O       -0.00344109       0.01235353       0.00000000
H        1.15616083      -0.14974849       0.00000000
H       -0.38023856       0.88263788       0.00000000
3
Lattice="15.0 0.0 0.0 0.0 15.0 0.0 0.0 0.0 15.0" Properties=species:S:1:pos:R:3 energy=0.0335809645 pbc="T T T"
O       -0.00833210      -0.00334817       0.00000000
H        0.95187753       0.11863478       0.00000000
H       -0.09832431       0.86344978       0.00000000
3
Lattice="15.0 0.0 0.0 0.0 15.0 0.0 0.0 0.0 15.0" Properties=species:S:1:pos:R:3 energy=-0.0009846307 pbc="T T T"
O       -0.00653618      -0.00839718       0.00000000
H        0.97779290       0.09228733       0.00000000
H       -0.15274282       0.96992904       0.00000000
3
Lattice="15.0 0.0 0.0 0.0 15.0 0.0 0.0 0.0 15.0" Properties=species:S:1:pos:R:3 energy=-0.0355936761 pbc="T T T"
O       -0.01371720      -0.00345696       0.00000000
H        1.03549133       0.12041539       0.00000000
H       -0.09647270       0.86339607       0.00000000
3
Lattice="15.0 0.0 0.0 0.0 15.0 0.0 0.0 0.0 15.0" Properties=species:S:1:pos:R:3 energy=-0.1608452587 pbc="T T T"
O        0.00060395      -0.01100885       0.00000000
H        0.97154230       0.01737547       0.00000000
H       -0.25981316       1.08629050       0.00000000
3
Lattice="15.0 0.0 0.0 0.0 15.0 0.0 0.0 0.0 15.0" Properties=species:S:1:pos:R:3 energy=-0.2076666234 pbc="T T T"
O       -0.00384965      -0.01835362       0.00000000
H        0.94379891       0.11694822       0.00000000
H       -0.16138530       1.10328408       0.00000000
3
Lattice="15.0 0.0 0.0 0.0 15.0 0.0 0.0 0.0 15.0" Properties=species:S:1:pos:R:3 energy=-0.0211497905 pbc="T T T"
O       -0.00223743       0.00382598       0.00000000
H        1.03325630      -0.04227397       0.00000000
H       -0.27643406       0.91050071       0.00000000
3
Lattice="15.0 0.0 0.0 0.0 15.0 0.0 0.0 0.0 15.0" Properties=species:S:1:pos:R:3 energy=0.1619416379 pbc="T T T"
O       -0.01172374      -0.00119455       0.00000000
H        0.97701681       0.13412605       0.00000000
H       -0.06963549       0.81377901       0.00000000
3
Lattice="15.0 0.0 0.0 0.0 15.0 0.0 0.0 0.0 15.0" Properties=species:S:1:pos:R:3 energy=-0.0013361421 pbc="T T T"
O       -0.00570139      -0.01004299       0.00000000
H        0.94112430       0.11565930       0.00000000
H       -0.12932237       0.97267704       0.00000000
3
Lattice="15.0 0.0 0.0 0.0 15.0 0.0 0.0 0.0 15.0" Properties=species:S:1:pos:R:3 energy=-0.0235068171 pbc="T T T"
O       -0.00287423       0.00139604       0.00000000
H        1.05401751      -0.04289093       0.00000000
H       -0.28708883       0.94968286       0.00000000
3
Lattice="15.0 0.0 0.0 0.0 15.0 0.0 0.0 0.0 15.0" Properties=species:S:1:pos:R:3 energy=0.1703107454 pbc="T T T"
O        0.01552968       0.00910470       0.00000000
H        0.82439200      -0.11568091       0.00000000
H       -0.34954872       0.90013016       0.00000000
3
Lattice="15.0 0.0 0.0 0.0 15.0 0.0 0.0 0.0 15.0" Properties=species:S:1:pos:R:3 energy=0.2679241917 pbc="T T T"
O        0.00650628      -0.00653096       0.00000000
H        0.80175776       0.06236713       0.00000000
H       -0.18370179       0.97023055       0.00000000
3
Lattice="15.0 0.0 0.0 0.0 15.0 0.0 0.0 0.0 15.0" Properties=species:S:1:pos:R:3 energy=0.0824456856 pbc="T T T"
O        0.00079211       0.00942135       0.00000000
H        0.95680026      -0.03787111       0.00000000
H       -0.24805913       0.81729487       0.00000000
3
Lattice="15.0 0.0 0.0 0.0 15.0 0.0 0.0 0.0 15.0" Properties=species:S:1:pos:R:3 energy=-0.0236841679 pbc="T T T"
O       -0.00089255      -0.00566120       0.00000000
H        1.02547935      -0.02291535       0.00000000
H       -0.29000070       1.04171056       0.00000000
3
Lattice="15.0 0.0 0.0 0.0 15.0 0.0 0.0 0.0 15.0" Properties=species:S:1:pos:R:3 energy=-0.0123309035 pbc="T T T"
O       -0.00820171      -0.00669428       0.00000000
H        1.03315509       0.06445747       0.00000000
H       -0.18167261       0.97073312       0.00000000
3
Lattice="15.0 0.0 0.0 0.0 15.0 0.0 0.0 0.0 15.0" Properties=species:S:1:pos:R:3 energy=0.0008140519 pbc="T T T"
O        0.00409772       0.00622988       0.00000000
H        0.99315843      -0.09678605       0.00000000
H       -0.33688108       0.92686133       0.00000000
3
Lattice="15.0 0.0 0.0 0.0 15.0 0.0 0.0 0.0 15.0" Properties=species:S:1:pos:R:3 energy=-0.1455560655 pbc="T T T"
O       -0.00144623       0.00913313       0.00000000
H        1.12029468      -0.13633480       0.00000000
H       -0.37603189       0.92033414       0.00000000
3
Lattice="15.0 0.0 0.0 0.0 15.0 0.0 0.0 0.0 15.0" Properties=species:S:1:pos:R:3 energy=-0.1715857876 pbc="T T T"
O        0.00503991      -0.00622287       0.00000000
H        0.96160421      -0.04465667       0.00000000
H       -0.32027866       1.07236592       0.00000000
3
Lattice="15.0 0.0 0.0 0.0 15.0 0.0 0.0 0.0 15.0" Properties=species:S:1:pos:R:3 energy=-0.0067073380 pbc="T T T"
O       -0.00276394      -0.00901966       0.00000000
H        0.92278585       0.09047392       0.00000000
H       -0.15760406       0.98162156       0.00000000
3
Lattice="15.0 0.0 0.0 0.0 15.0 0.0 0.0 0.0 15.0" Properties=species:S:1:pos:R:3 energy=-0.1484847207 pbc="T T T"
O       -0.00463763      -0.01809728       0.00000000
H        0.93264262       0.13451472       0.00000000
H       -0.13772265       1.08164898       0.00000000
3
Lattice="15.0 0.0 0.0 0.0 15.0 0.0 0.0 0.0 15.0" Properties=species:S:1:pos:R:3 energy=-0.0005884056 pbc="T T T"
O       -0.00769504      -0.00485211       0.00000000
H        0.96964291       0.10172725       0.00000000
H       -0.12620079       0.90422613       0.00000000
3
Lattice="15.0 0.0 0.0 0.0 15.0 0.0 0.0 0.0 15.0" Properties=species:S:1:pos:R:3 energy=-0.3449632827 pbc="T T T"
O       -0.01834459      -0.00664164       0.00000000
H        1.13438950       0.11068151       0.00000000
H       -0.12193094       0.92367362       0.00000000
3
Lattice="15.0 0.0 0.0 0.0 15.0 0.0 0.0 0.0 15.0" Properties=species:S:1:pos:R:3 energy=0.0009869592 pbc="T T T"
O        0.01012856       0.01319112       0.00000000
H        0.89716399      -0.11850296       0.00000000
H       -0.33660120       0.83809801       0.00000000
3
Lattice="15.0 0.0 0.0 0.0 15.0 0.0 0.0 0.0 15.0" Properties=species:S:1:pos:R:3 energy=-0.0697028072 pbc="T T T"
O        0.00198468      -0.00517075       0.00000000
H        1.00540400      -0.04433079       0.00000000
H       -0.31558973       1.05534236       0.00000000
3
Lattice="15.0 0.0 0.0 0.0 15.0 0.0 0.0 0.0 15.0" Properties=species:S:1:pos:R:3 energy=-0.0323812910 pbc="T T T"
O       -0.01051522      -0.00710039       0.00000000
H        1.04120684       0.08799648       0.00000000
H       -0.15300659       0.95363919       0.00000000
3
Lattice="15.0 0.0 0.0 0.0 15.0 0.0 0.0 0.0 15.0" Properties=species:S:1:pos:R:3 energy=0.0074038657 pbc="T T T"
O        0.00006202       0.00434915       0.00000000
H        0.96379304      -0.01832111       0.00000000
H       -0.24346426       0.87824443       0.00000000
3
Lattice="15.0 0.0 0.0 0.0 15.0 0.0 0.0 0.0 15.0" Properties=species:S:1:pos:R:3 energy=-0.3174866694 pbc="T T T"
O       -0.00397706      -0.02023644       0.00000000
H        0.95848213       0.11304931       0.00000000
H       -0.17404647       1.13706483       0.00000000
3
Lattice="15.0 0.0 0.0 0.0 15.0 0.0 0.0 0.0 15.0" Properties=species:S:1:pos:R:3 energy=-0.0016071540 pbc="T T T"
O       -0.00684719      -0.00623270       0.00000000
H        0.95764916       0.10494202       0.00000000
H       -0.12766291       0.92292234       0.00000000
3
Lattice="15.0 0.0 0.0 0.0 15.0 0.0 0.0 0.0 15.0" Properties=species:S:1:pos:R:3 energy=0.0019365140 pbc="T T T"
O       -0.00784827      -0.00766181       0.00000000
H        0.92546049       0.14677766       0.00000000
H       -0.07958530       0.90376733       0.00000000
3
Lattice="15.0 0.0 0.0 0.0 15.0 0.0 0.0 0.0 15.0" Properties=species:S:1:pos:R:3 energy=-0.0144147626 pbc="T T T"
O       -0.00269410       0.00041890       0.00000000
H        1.05560147      -0.04326189       0.00000000
H       -0.29153155       0.96556164       0.00000000
3
Lattice="15.0 0.0 0.0 0.0 15.0 0.0 0.0 0.0 15.0" Properties=species:S:1:pos:R:3 energy=-0.0016526653 pbc="T T T"
O        0.00505539       0.00697460       0.00000000
H        1.01247725      -0.12593655       0.00000000
H       -0.37139966       0.94419279       0.00000000
3
Lattice="15.0 0.0 0.0 0.0 15.0 0.0 0.0 0.0 15.0" Properties=species:S:1:pos:R:3 energy=-0.0007818096 pbc="T T T"
O        0.00726997       0.01110088       0.00000000
H        0.97722716      -0.13885833       0.00000000
H       -0.37129696       0.89162748       0.00000000
3
Lattice="15.0 0.0 0.0 0.0 15.0 0.0 0.0 0.0 15.0" Properties=species:S:1:pos:R:3 energy=-0.1019816507 pbc="T T T"
O       -0.00058368       0.01396385       0.00000000
H        1.07849480      -0.12972784       0.00000000
H       -0.34792129       0.83705991       0.00000000
3
Lattice="15.0 0.0 0.0 0.0 15.0 0.0 0.0 0.0 15.0" Properties=species:S:1:pos:R:3 energy=-0.3567635250 pbc="T T T"
O       -0.00474693       0.01014616       0.00000000
H        1.16571161      -0.13411638       0.00000000
H       -0.36906434       0.90203838       0.00000000
3
Lattice="15.0 0.0 0.0 0.0 15.0 0.0 0.0 0.0 15.0" Properties=species:S:1:pos:R:3 energy=0.1780281518 pbc="T T T"
O        0.00636412       0.01909546       0.00000000
H        0.95348331      -0.13444775       0.00000000
H       -0.33317659       0.76033678       0.00000000
3
Lattice="15.0 0.0 0.0 0.0 15.0 0.0 0.0 0.0 15.0" Properties=species:S:1:pos:R:3 energy=0.3056257757 pbc="T T T"
O        0.01629320       0.00554270       0.00000000
H        0.80436153      -0.09831255       0.00000000
H       -0.34163533       0.93929328       0.00000000
3
Lattice="15.0 0.0 0.0 0.0 15.0 0.0 0.0 0.0 15.0" Properties=species:S:1:pos:R:3 energy=0.0139305414 pbc="T T T"
O        0.01096010       0.00921339       0.00000000
H        0.89427118      -0.11397074       0.00000000
H       -0.34690531       0.89669521       0.00000000
3
Lattice="15.0 0.0 0.0 0.0 15.0 0.0 0.0 0.0 15.0" Properties=species:S:1:pos:R:3 energy=-0.0586106854 pbc="T T T"
O       -0.00011595       0.00988439       0.00000000
H        1.06060851      -0.10874874       0.00000000
H       -0.33745763       0.88082462       0.00000000
3
Lattice="15.0 0.0 0.0 0.0 15.0 0.0 0.0 0.0 15.0" Properties=species:S:1:pos:R:3 energy=0.0882800190 pbc="T T T"
O       -0.00910790       0.00066875       0.00000000
H        0.99217953       0.08424306       0.00000000
H       -0.12631476       0.83409048       0.00000000
3
Lattice="15.0 0.0 0.0 0.0 15.0 0.0 0.0 0.0 15.0" Properties=species:S:1:pos:R:3 energy=-0.2091083365 pbc="T T T"
O       -0.01500933      -0.00651423       0.00000000
H        1.12654133       0.07527056       0.00000000
H       -0.16701676       0.95706277       0.00000000
3
Lattice="15.0 0.0 0.0 0.0 15.0 0.0 0.0 0.0 15.0" Properties=species:S:1:pos:R:3 energy=-0.0017326464 pbc="T T T"
O        0.00457258       0.00729269       0.00000000
H        1.03954462      -0.14200706       0.00000000
H       -0.39080481       0.95521526       0.00000000
3
Lattice="15.0 0.0 0.0 0.0 15.0 0.0 0.0 0.0 15.0" Properties=species:S:1:pos:R:3 energy=-0.0226505781 pbc="T T T"
O       -0.00513688      -0.01179220       0.00000000
H        0.97486051       0.08801711       0.00000000
H       -0.17201838       1.02808082       0.00000000
3
Lattice="15.0 0.0 0.0 0.0 15.0 0.0 0.0 0.0 15.0" Properties=species:S:1:pos:R:3 energy=-0.0945739564 pbc="T T T"
O        0.00639766      -0.00136633       0.00000000
H        0.97699762      -0.08864581       0.00000000
H       -0.35722177       1.03927848       0.00000000
3
Lattice="15.0 0.0 0.0 0.0 15.0 0.0 0.0 0.0 15.0" Properties=species:S:1:pos:R:3 energy=0.0028787839 pbc="T T T"
O       -0.00587289      -0.00530954       0.00000000
H        0.93421721       0.10822135       0.00000000
H       -0.11969373       0.90499162       0.00000000
3
Lattice="15.0 0.0 0.0 0.0 15.0 0.0 0.0 0.0 15.0" Properties=species:S:1:pos:R:3 energy=-0.0191972312 pbc="T T T"
O        0.01032982       0.00200597       0.00000000
H        0.90014950      -0.08805734       0.00000000
H       -0.34277980       0.98516876       0.00000000
3
Lattice="15.0 0.0 0.0 0.0 15.0 0.0 0.0 0.0 15.0" Properties=species:S:1:pos:R:3 energy=0.0203589642 pbc="T T T"
O       -0.00291770       0.00332589       0.00000000
H        0.97944114       0.00947417       0.00000000
H       -0.21182120       0.86668888       0.00000000
3
Lattice="15.0 0.0 0.0 0.0 15.0 0.0 0.0 0.0 15.0" Properties=species:S:1:pos:R:3 energy=-0.0280922391 pbc="T T T"
O       -0.00099958      -0.00731380       0.00000000
H        0.97049096       0.02631069       0.00000000
H       -0.23331249       1.01871200       0.00000000
3
Lattice="15.0 0.0 0.0 0.0 15.0 0.0 0.0 0.0 15.0" Properties=species:S:1:pos:R:3 energy=-0.0035041212 pbc="T T T"
O       -0.00859018      -0.00324877       0.00000000
H        0.99424513       0.08860275       0.00000000
H       -0.13659675       0.89190471       0.00000000
3
Lattice="15.0 0.0 0.0 0.0 15.0 0.0 0.0 0.0 15.0" Properties=species:S:1:pos:R:3 energy=-0.3074004055 pbc="T T T"
O       -0.01115819       0.00245254       0.00000000
H        1.14175547      -0.01225906       0.00000000
H       -0.24335355       0.90228361       0.00000000
3
Lattice="15.0 0.0 0.0 0.0 15.0 0.0 0.0 0.0 15.0" Properties=species:S:1:pos:R:3 energy=-0.1388946818 pbc="T T T"
O       -0.00590408       0.00479744       0.00000000
H        1.10139625      -0.05305954       0.00000000
H       -0.28638198       0.90586897       0.00000000
3
Lattice="15.0 0.0 0.0 0.0 15.0 0.0 0.0 0.0 15.0" Properties=species:S:1:pos:R:3 energy=-0.0825268847 pbc="T T T"
O       -0.00570994      -0.01523234       0.00000000
H        1.00713735       0.08085559       0.00000000
H       -0.19520048       1.08984009       0.00000000
3
Lattice="15.0 0.0 0.0 0.0 15.0 0.0 0.0 0.0 15.0" Properties=species:S:1:pos:R:3 energy=0.2087917441 pbc="T T T"
O        0.01007616      -0.00115389       0.00000000
H        0.82268286      -0.01481997       0.00000000
H       -0.26128556       0.96208003       0.00000000
3
Lattice="15.0 0.0 0.0 0.0 15.0 0.0 0.0 0.0 15.0" Properties=species:S:1:pos:R:3 energy=-0.0004699427 pbc="T T T"
O       -0.00172791      -0.00314554       0.00000000
H        1.02968686      -0.02381441       0.00000000
H       -0.28095052       1.00268430       0.00000000
3
Lattice="15.0 0.0 0.0 0.0 15.0 0.0 0.0 0.0 15.0" Properties=species:S:1:pos:R:3 energy=-0.0432676899 pbc="T T T"
O       -0.00645456      -0.01492927       0.00000000
H        0.96781224       0.11961421       0.00000000
H       -0.14405671       1.04627120       0.00000000
3
Lattice="15.0 0.0 0.0 0.0 15.0 0.0 0.0 0.0 15.0" Properties=species:S:1:pos:R:3 energy=0.1655836324 pbc="T T T"
O        0.01018876       0.00156111       0.00000000
H        0.83125753      -0.03142098       0.00000000
H       -0.27164773       0.93559216       0.00000000
3
Lattice="15.0 0.0 0.0 0.0 15.0 0.0 0.0 0.0 15.0" Properties=species:S:1:pos:R:3 energy=0.0841406447 pbc="T T T"
O        0.01007920      -0.00085998       0.00000000
H        0.85217177      -0.03868234       0.00000000
H       -0.29082329       0.98127806       0.00000000
3
Lattice="15.0 0.0 0.0 0.0 15.0 0.0 0.0 0.0 15.0" Properties=species:S:1:pos:R:3 energy=-0.3983449779 pbc="T T T"
O        0.00148811      -0.01524855       0.00000000
H        0.95393772       0.03350866       0.00000000
H       -0.25624040       1.13744440       0.00000000
3
Lattice="15.0 0.0 0.0 0.0 15.0 0.0 0.0 0.0 15.0" Properties=species:S:1:pos:R:3 energy=-0.0025725368 pbc="T T T"
O       -0.00224246      -0.00448526       0.00000000
H        1.04014915      -0.02137589       0.00000000
H       -0.28324647       1.02150819       0.00000000
3
Lattice="15.0 0.0 0.0 0.0 15.0 0.0 0.0 0.0 15.0" Properties=species:S:1:pos:R:3 energy=-0.0091089638 pbc="T T T"
O        0.00160408      -0.01147651       0.00000000
H        0.86348513       0.09043236       0.00000000
H       -0.16762695       1.02065495       0.00000000
3
Lattice="15.0 0.0 0.0 0.0 15.0 0.0 0.0 0.0 15.0" Properties=species:S:1:pos:R:3 energy=0.0010407371 pbc="T T T"
O        0.00278645       0.00403474       0.00000000
H        0.96830828      -0.05441247       0.00000000
H       -0.29121912       0.91932600       0.00000000
3
Lattice="15.0 0.0 0.0 0.0 15.0 0.0 0.0 0.0 15.0" Properties=species:S:1:pos:R:3 energy=0.1626900276 pbc="T T T"
O       -0.00118190       0.00974084       0.00000000
H        0.96988662      -0.02471189       0.00000000
H       -0.22981606       0.79906512       0.00000000
3
Lattice="15.0 0.0 0.0 0.0 15.0 0.0 0.0 0.0 15.0" Properties=species:S:1:pos:R:3 energy=-0.0054672632 pbc="T T T"
O       -0.00641409      -0.01091981       0.00000000
H        0.96614649       0.10777516       0.00000000
H       -0.14303364       0.99447706       0.00000000
3
Lattice="15.0 0.0 0.0 0.0 15.0 0.0 0.0 0.0 15.0" Properties=species:S:1:pos:R:3 energy=-0.0286373594 pbc="T T T"
O        0.00391658      -0.00050743       0.00000000
H        0.99573502      -0.07532535       0.00000000
H       -0.33658225       1.01232670       0.00000000
3
Lattice="15.0 0.0 0.0 0.0 15.0 0.0 0.0 0.0 15.0" Properties=species:S:1:pos:R:3 energy=-0.1393407411 pbc="T T T"
O       -0.00136883      -0.01478496       0.00000000
H        0.92140635       0.09251817       0.00000000
H       -0.17836582       1.07107689       0.00000000
3
Lattice="15.0 0.0 0.0 0.0 15.0 0.0 0.0 0.0 15.0" Properties=species:S:1:pos:R:3 energy=0.3659011756 pbc="T T T"
O        0.00096392       0.01611049       0.00000000
H        0.97814890      -0.07764356       0.00000000
H       -0.27213563       0.75090607       0.00000000
3
Lattice="15.0 0.0 0.0 0.0 15.0 0.0 0.0 0.0 15.0" Properties=species:S:1:pos:R:3 energy=0.0087432922 pbc="T T T"
O        0.00750930       0.00625766       0.00000000
H        0.89713405      -0.06435274       0.00000000
H       -0.29500018       0.89398658       0.00000000
3
Lattice="15.0 0.0 0.0 0.0 15.0 0.0 0.0 0.0 15.0" Properties=species:S:1:pos:R:3 energy=-0.1944219485 pbc="T T T"
O        0.00827845      -0.00334415       0.00000000
H        0.94615168      -0.08163985       0.00000000
H       -0.35622498       1.06366193       0.00000000
3
Lattice="15.0 0.0 0.0 0.0 15.0 0.0 0.0 0.0 15.0" Properties=species:S:1:pos:R:3 energy=0.0873514203 pbc="T T T"
O        0.00493447       0.01436263       0.00000000
H        0.94324374      -0.09396440       0.00000000
H       -0.30024632       0.79496675       0.00000000
3
Lattice="15.0 0.0 0.0 0.0 15.0 0.0 0.0 0.0 15.0" Properties=species:S:1:pos:R:3 energy=0.0647093387 pbc="T T T"
O        0.01164132       0.00613020       0.00000000
H        0.86454886      -0.08957097       0.00000000
H       -0.32799381       0.92122769       0.00000000
3
Lattice="15.0 0.0 0.0 0.0 15.0 0.0 0.0 0.0 15.0" Properties=species:S:1:pos:R:3 energy=-0.1484684675 pbc="T T T"
O        0.01079282       0.00194179       0.00000000
H        0.96110324      -0.14089309       0.00000000
H       -0.41108301       1.03902370       0.00000000
3
Lattice="15.0 0.0 0.0 0.0 15.0 0.0 0.0 0.0 15.0" Properties=species:S:1:pos:R:3 energy=-0.0746382662 pbc="T T T"