3
Lattice="15.0 0.0 0.0 0.0 15.0 0.0 0.0 0.0 15.0" Properties=species:S:1:pos:R:3 energy=0.0501391081 pbc="T T T"
O        0.00256924       0.01563334       0.00000000
H        1.01012707      -0.12075579       0.00000000
H       -0.32959243       0.80159135       0.00000000
3
Lattice="15.0 0.0 0.0 0.0 15.0 0.0 0.0 0.0 15.0" Properties=species:S:1:pos:R:3 energy=0.0025854846 pbc="T T T"
O       -0.00171174      -0.00705552       0.00000000
H        0.91345839       0.07856071       0.00000000
H       -0.16497600       0.96236236       0.00000000
3
Lattice="15.0 0.0 0.0 0.0 15.0 0.0 0.0 0.0 15.0" Properties=species:S:1:pos:R:3 energy=-0.0124956648 pbc="T T T"
O       -0.00476513      -0.00242900       0.00000000
H        0.92353274       0.09378960       0.00000000
H       -0.12659055       0.87370712       0.00000000
3
Lattice="15.0 0.0 0.0 0.0 15.0 0.0 0.0 0.0 15.0" Properties=species:S:1:pos:R:3 energy=-0.1184297517 pbc="T T T"
O       -0.00820306       0.00312140       0.00000000
H        1.08482742      -0.00657971       0.00000000
H       -0.23332548       0.88598870       0.00000000
3
Lattice="15.0 0.0 0.0 0.0 15.0 0.0 0.0 0.0 15.0" Properties=species:S:1:pos:R:3 energy=-0.2077197102 pbc="T T T"
O       -0.00873268       0.00378723       0.00000000
H        1.11423699      -0.02498791       0.00000000
H       -0.25433009       0.89382995       0.00000000
3
Lattice="15.0 0.0 0.0 0.0 15.0 0.0 0.0 0.0 15.0" Properties=species:S:1:pos:R:3 energy=-0.1232840241 pbc="T T T"
O       -0.00847816       0.00041575       0.00000000
H        1.09784134      -0.00476954       0.00000000
H       -0.24197329       0.92711928       0.00000000
3
Lattice="15.0 0.0 0.0 0.0 15.0 0.0 0.0 0.0 15.0" Properties=species:S:1:pos:R:3 energy=0.0369024129 pbc="T T T"
O        0.00528959      -0.00890402       0.00000000
H        0.85359055       0.04458975       0.00000000
H       -0.21622519       1.02567047       0.00000000
3
Lattice="15.0 0.0 0.0 0.0 15.0 0.0 0.0 0.0 15.0" Properties=species:S:1:pos:R:3 energy=-0.0756001827 pbc="T T T"
O        0.00061788       0.01282153       0.00000000
H        1.08315551      -0.14455553       0.00000000
H       -0.37165193       0.87001718       0.00000000
3
Lattice="15.0 0.0 0.0 0.0 15.0 0.0 0.0 0.0 15.0" Properties=species:S:1:pos:R:3 energy=0.0090131068 pbc="T T T"
O        0.00284811       0.00768934       0.00000000
H        1.03821711      -0.12097379       0.00000000
H       -0.36210828       0.92788668       0.00000000
3
Lattice="15.0 0.0 0.0 0.0 15.0 0.0 0.0 0.0 15.0" Properties=species:S:1:pos:R:3 energy=0.0620204519 pbc="T T T"
O        0.00311897      -0.00432731       0.00000000
H        0.85609374       0.05497542       0.00000000
H       -0.18427900       0.94264888       0.00000000
3
Lattice="15.0 0.0 0.0 0.0 15.0 0.0 0.0 0.0 15.0" Properties=species:S:1:pos:R:3 energy=-0.3497290070 pbc="T T T"
O        0.00173472      -0.01391428       0.00000000
H        0.96642903       0.01656546       0.00000000
H       -0.27264592       1.13321182       0.00000000
3
Lattice="15.0 0.0 0.0 0.0 15.0 0.0 0.0 0.0 15.0" Properties=species:S:1:pos:R:3 energy=-0.0278042729 pbc="T T T"
O       -0.00814034      -0.00240853       0.00000000
H        1.03689598       0.04729190       0.00000000
H       -0.18638804       0.91988074       0.00000000
3
Lattice="15.0 0.0 0.0 0.0 15.0 0.0 0.0 0.0 15.0" Properties=species:S:1:pos:R:3 energy=-0.0241584908 pbc="T T T"
O        0.01369535       0.00449006       0.00000000
H        0.88758198      -0.12760254       0.00000000
H       -0.38362685       0.98528986       0.00000000
3
Lattice="15.0 0.0 0.0 0.0 15.0 0.0 0.0 0.0 15.0" Properties=species:S:1:pos:R:3 energy=0.3065144701 pbc="T T T"
O        0.01728560       0.00510883       0.00000000
H        0.79805885      -0.10428160       0.00000000
H       -0.35108290       0.95214811       0.00000000
3
Lattice="15.0 0.0 0.0 0.0 15.0 0.0 0.0 0.0 15.0" Properties=species:S:1:pos:R:3 energy=0.0051739804 pbc="T T T"
O        0.00238886       0.00844589       0.00000000
H        1.05639451      -0.13181297       0.00000000
H       -0.37299727       0.92671908       0.00000000
3
Lattice="15.0 0.0 0.0 0.0 15.0 0.0 0.0 0.0 15.0" Properties=species:S:1:pos:R:3 energy=0.0633141010 pbc="T T T"
O        0.00400690       0.01410970       0.00000000
H        0.96081781      -0.09538273       0.00000000
H       -0.30309919       0.80039929       0.00000000
3
Lattice="15.0 0.0 0.0 0.0 15.0 0.0 0.0 0.0 15.0" Properties=species:S:1:pos:R:3 energy=-0.0346490055 pbc="T T T"
O        0.00430699      -0.00102953       0.00000000
H        1.00776998      -0.08783703       0.00000000
H       -0.35481356       1.03312456       0.00000000
3
Lattice="15.0 0.0 0.0 0.0 15.0 0.0 0.0 0.0 15.0" Properties=species:S:1:pos:R:3 energy=0.0527906967 pbc="T T T"
O        0.00077627      -0.00895995       0.00000000
H        0.85777295       0.09714033       0.00000000
H       -0.14877662       0.97400716       0.00000000
3
Lattice="15.0 0.0 0.0 0.0 15.0 0.0 0.0 0.0 15.0" Properties=species:S:1:pos:R:3 energy=-0.0836004409 pbc="T T T"
O        0.00018816       0.01221178       0.00000000
H        1.08856891      -0.14154197       0.00000000
H       -0.37024525       0.87668078       0.00000000
3
Lattice="15.0 0.0 0.0 0.0 15.0 0.0 0.0 0.0 15.0" Properties=species:S:1:pos:R:3 energy=0.1167139406 pbc="T T T"
O       -0.00909288       0.00008931       0.00000000
H        0.97885079       0.09623388       0.00000000
H       -0.11322401       0.83129562       0.00000000
3
Lattice="15.0 0.0 0.0 0.0 15.0 0.0 0.0 0.0 15.0" Properties=species:S:1:pos:R:3 energy=-0.0431590806 pbc="T T T"
O       -0.00382360      -0.01091781       0.00000000
H        1.02072823       0.03345971       0.00000000
H       -0.23873019       1.06876143       0.00000000
3
Lattice="15.0 0.0 0.0 0.0 15.0 0.0 0.0 0.0 15.0" Properties=species:S:1:pos:R:3 energy=-0.0034488286 pbc="T T T"
O       -0.00835888      -0.00532832       0.00000000
H        1.00543714       0.08361393       0.00000000
H       -0.15145979       0.92989750       0.00000000
3
Lattice="15.0 0.0 0.0 0.0 15.0 0.0 0.0 0.0 15.0" Properties=species:S:1:pos:R:3 energy=0.0912344109 pbc="T T T"
O        0.01284834       0.00418386       0.00000000
H        0.84741927      -0.08501181       0.00000000
H       -0.33002029       0.94755832       0.00000000
3
Lattice="15.0 0.0 0.0 0.0 15.0 0.0 0.0 0.0 15.0" Properties=species:S:1:pos:R:3 energy=-0.0208572175 pbc="T T T"
O       -0.00929747      -0.01667991       0.00000000
H        1.03268869       0.10978839       0.00000000
H       -0.16381430       1.08388125       0.00000000
3
Lattice="15.0 0.0 0.0 0.0 15.0 0.0 0.0 0.0 15.0" Properties=species:S:1:pos:R:3 energy=-0.1352481451 pbc="T T T"
O       -0.01712186      -0.01021473       0.00000000
H        1.12201067       0.11648375       0.00000000
H       -0.12895760       0.97457900       0.00000000
3
Lattice="15.0 0.0 0.0 0.0 15.0 0.0 0.0 0.0 15.0" Properties=species:S:1:pos:R:3 energy=0.1524425660 pbc="T T T"
O       -0.01312027      -0.00138171       0.00000000
H        1.01206339       0.12471214       0.00000000
H       -0.08251832       0.82616341       0.00000000
3
Lattice="15.0 0.0 0.0 0.0 15.0 0.0 0.0 0.0 15.0" Properties=species:S:1:pos:R:3 energy=0.3304651862 pbc="T T T"
O        0.00802668      -0.00648239       0.00000000
H        0.79749669       0.04678550       0.00000000
H       -0.20357095       0.98504134       0.00000000
3
Lattice="15.0 0.0 0.0 0.0 15.0 0.0 0.0 0.0 15.0" Properties=species:S:1:pos:R:3 energy=-0.1009426586 pbc="T T T"
O       -0.00575940      -0.01829603       0.00000000
H        0.97234619       0.11813484       0.00000000
H       -0.15962343       1.10118345       0.00000000
3
Lattice="15.0 0.0 0.0 0.0 15.0 0.0 0.0 0.0 15.0" Properties=species:S:1:pos:R:3 energy=0.1523666863 pbc="T T T"
O       -0.00095966       0.01346031       0.00000000
H        1.01191571      -0.07180745       0.00000000
H       -0.27537367       0.78713037       0.00000000
3
Lattice="15.0 0.0 0.0 0.0 15.0 0.0 0.0 0.0 15.0" Properties=species:S:1:pos:R:3 energy=-0.1251289487 pbc="T T T"
O       -0.00019412      -0.01771724       0.00000000
H        0.88452483       0.11592006       0.00000000
H       -0.16012705       1.09421217       0.00000000
3
Lattice="15.0 0.0 0.0 0.0 15.0 0.0 0.0 0.0 15.0" Properties=species:S:1:pos:R:3 energy=-0.0003989896 pbc="T T T"
O       -0.00197327      -0.00348984       0.00000000
H        1.03543302      -0.02416775       0.00000000
H       -0.28280268       1.00850205       0.00000000
3
Lattice="15.0 0.0 0.0 0.0 15.0 0.0 0.0 0.0 15.0" Properties=species:S:1:pos:R:3 energy=-0.0258372416 pbc="T T T"
O       -0.00953361       0.00463977       0.00000000
H        1.06876921       0.01750319       0.00000000
H       -0.19614991       0.83780798       0.00000000
3
Lattice="15.0 0.0 0.0 0.0 15.0 0.0 0.0 0.0 15.0" Properties=species:S:1:pos:R:3 energy=-0.0061554741 pbc="T T T"
O       -0.00331918      -0.01085044       0.00000000
H        0.93424011       0.09419100       0.00000000
H       -0.16024604       1.00696023       0.00000000
3
Lattice="15.0 0.0 0.0 0.0 15.0 0.0 0.0 0.0 15.0" Properties=species:S:1:pos:R:3 energy=-0.2950841775 pbc="T T T"
O        0.00802165      -0.00561762       0.00000000
H        0.94842307      -0.07307531       0.00000000
H       -0.35442065       1.09117887       0.00000000
3
Lattice="15.0 0.0 0.0 0.0 15.0 0.0 0.0 0.0 15.0" Properties=species:S:1:pos:R:3 energy=0.0919674711 pbc="T T T"
O       -0.00085811       0.01346191       0.00000000
H        1.02357981      -0.08212138       0.00000000
H       -0.28864963       0.79741902       0.00000000
3
Lattice="15.0 0.0 0.0 0.0 15.0 0.0 0.0 0.0 15.0" Properties=species:S:1:pos:R:3 energy=0.0021933800 pbc="T T T"
O        0.00798014       0.00796575       0.00000000
H        0.95117763      -0.11750358       0.00000000
H       -0.35651766       0.92002937       0.00000000
3
Lattice="15.0 0.0 0.0 0.0 15.0 0.0 0.0 0.0 15.0" Properties=species:S:1:pos:R:3 energy=-0.0991392294 pbc="T T T"
O       -0.00273339       0.00690817       0.00000000
H        1.10458152      -0.10125947       0.00000000
H       -0.33988973       0.92057033       0.00000000
3
Lattice="15.0 0.0 0.0 0.0 15.0 0.0 0.0 0.0 15.0" Properties=species:S:1:pos:R:3 energy=-0.0441525709 pbc="T T T"
O       -0.00029439      -0.00654605       0.00000000
H        1.01631496      -0.02038253       0.00000000
H       -0.29032945       1.05322097       0.00000000
3
Lattice="15.0 0.0 0.0 0.0 15.0 0.0 0.0 0.0 15.0" Properties=species:S:1:pos:R:3 energy=0.0371325545 pbc="T T T"
O       -0.00325511       0.00819345       0.00000000
H        1.02115885      -0.03410007       0.00000000
H       -0.24818531       0.83301177       0.00000000
3
Lattice="15.0 0.0 0.0 0.0 15.0 0.0 0.0 0.0 15.0" Properties=species:S:1:pos:R:3 energy=-0.0462170220 pbc="T T T"
O       -0.00848932      -0.01782316       0.00000000
H        1.01340712       0.11840363       0.00000000
H       -0.15735850       1.09341005       0.00000000
3
Lattice="15.0 0.0 0.0 0.0 15.0 0.0 0.0 0.0 15.0" Properties=species:S:1:pos:R:3 energy=-0.1977416251 pbc="T T T"
O       -0.01304151      -0.00349521       0.00000000
H        1.12844406       0.04002877       0.00000000
H       -0.20015116       0.94439069       0.00000000
3
Lattice="15.0 0.0 0.0 0.0 15.0 0.0 0.0 0.0 15.0" Properties=species:S:1:pos:R:3 energy=-0.3015348439 pbc="T T T"
O       -0.01355411      -0.00238784       0.00000000
H        1.15796338       0.01993434       0.00000000
H       -0.22153562       0.94691049       0.00000000
3
Lattice="15.0 0.0 0.0 0.0 15.0 0.0 0.0 0.0 15.0" Properties=species:S:1:pos:R:3 energy=-0.0089008044 pbc="T T T"
O       -0.00256664       0.00054046       0.00000000
H        1.08096725      -0.06491293       0.00000000
H       -0.31892088       0.98528376       0.00000000
3
Lattice="15.0 0.0 0.0 0.0 15.0 0.0 0.0 0.0 15.0" Properties=species:S:1:pos:R:3 energy=-0.1212664413 pbc="T T T"
O       -0.01075655      -0.00368306       0.00000000
H        1.11358290       0.02400090       0.00000000
H       -0.22155437       0.96339989       0.00000000
3
Lattice="15.0 0.0 0.0 0.0 15.0 0.0 0.0 0.0 15.0" Properties=species:S:1:pos:R:3 energy=-0.1026609957 pbc="T T T"
O       -0.00126662      -0.01840128       0.00000000
H        0.88701348       0.12936041       0.00000000
H       -0.14559404       1.09162798       0.00000000
3
Lattice="15.0 0.0 0.0 0.0 15.0 0.0 0.0 0.0 15.0" Properties=species:S:1:pos:R:3 energy=0.0010702275 pbc="T T T"
O       -0.01153482      -0.01040403       0.00000000
H        1.02104648       0.12662666       0.00000000
H       -0.11666348       0.96743992       0.00000000
3
Lattice="15.0 0.0 0.0 0.0 15.0 0.0 0.0 0.0 15.0" Properties=species:S:1:pos:R:3 energy=-0.0225947627 pbc="T T T"
O        0.00826292       0.00090135       0.00000000
H        0.91319696      -0.06923596       0.00000000
H       -0.32302368       0.98387861       0.00000000
3
Lattice="15.0 0.0 0.0 0.0 15.0 0.0 0.0 0.0 15.0" Properties=species:S:1:pos:R:3 energy=0.0073525059 pbc="T T T"
O       -0.01275176      -0.01454506       0.00000000
H        1.04698760       0.13452861       0.00000000
H       -0.12329065       1.02525919       0.00000000
3
Lattice="15.0 0.0 0.0 0.0 15.0 0.0 0.0 0.0 15.0" Properties=species:S:1:pos:R:3 energy=0.1118471248 pbc="T T T"
O       -0.00501195       0.00892009       0.00000000
H        1.02809901      -0.02012753       0.00000000
H       -0.22724268       0.80750681       0.00000000
3
Lattice="15.0 0.0 0.0 0.0 15.0 0.0 0.0 0.0 15.0" Properties=species:S:1:pos:R:3 energy=-0.0509709038 pbc="T T T"
O       -0.00026327       0.01464925       0.00000000
H        1.06495987      -0.12532608       0.00000000
H       -0.33947139       0.82178019       0.00000000
3
Lattice="15.0 0.0 0.0 0.0 15.0 0.0 0.0 0.0 15.0" Properties=species:S:1:pos:R:3 energy=0.0219508342 pbc="T T T"
O       -0.00052588      -0.00829024       0.00000000
H        0.84547804       0.12062503       0.00000000
H       -0.11581510       0.93989347       0.00000000
3
Lattice="15.0 0.0 0.0 0.0 15.0 0.0 0.0 0.0 15.0" Properties=species:S:1:pos:R:3 energy=0.0153252916 pbc="T T T"
O        0.00625694       0.01428010       0.00000000
H        0.93583726      -0.10425121       0.00000000
H       -0.31382872       0.80656336       0.00000000
3
Lattice="15.0 0.0 0.0 0.0 15.0 0.0 0.0 0.0 15.0" Properties=species:S:1:pos:R:3 energy=0.0697704418 pbc="T T T"
O       -0.00499480       0.00424606       0.00000000
H        0.99175494       0.02261092       0.00000000
H       -0.19116965       0.83894839       0.00000000
3
Lattice="15.0 0.0 0.0 0.0 15.0 0.0 0.0 0.0 15.0" Properties=species:S:1:pos:R:3 energy=-0.1272766847 pbc="T T T"
O       -0.00239699       0.01201041       0.00000000
H        1.09107137      -0.11099140       0.00000000
H       -0.33171882       0.84932585       0.00000000
3
Lattice="15.0 0.0 0.0 0.0 15.0 0.0 0.0 0.0 15.0" Properties=species:S:1:pos:R:3 energy=-0.0101341269 pbc="T T T"
O       -0.00748800      -0.00613479       0.00000000
H        1.03564683       0.05196385       0.00000000
H       -0.19549180       0.97434725       0.00000000
3
Lattice="15.0 0.0 0.0 0.0 15.0 0.0 0.0 0.0 15.0" Properties=species:S:1:pos:R:3 energy=-0.0010628873 pbc="T T T"
O        0.00455241       0.00788625       0.00000000
H        0.97212466      -0.09127559       0.00000000
H       -0.32306343       0.89506300       0.00000000
3
Lattice="15.0 0.0 0.0 0.0 15.0 0.0 0.0 0.0 15.0" Properties=species:S:1:pos:R:3 energy=0.0270583829 pbc="T T T"
O        0.00283107       0.00817950       0.00000000
H        0.92121552      -0.03145381       0.00000000
H       -0.24483398       0.83058652       0.00000000
3
Lattice="15.0 0.0 0.0 0.0 15.0 0.0 0.0 0.0 15.0" Properties=species:S:1:pos:R:3 energy=-0.0073812963 pbc="T T T"
O        0.01200137       0.00096559       0.00000000
H        0.87022579      -0.08214280       0.00000000
H       -0.33938461       0.99576572       0.00000000
3
Lattice="15.0 0.0 0.0 0.0 15.0 0.0 0.0 0.0 15.0" Properties=species:S:1:pos:R:3 energy=0.0773807948 pbc="T T T"
O        0.00969646       0.00164875       0.00000000
H        0.85660970      -0.04531658       0.00000000
H       -0.28918708       0.94809701       0.00000000
3
Lattice="15.0 0.0 0.0 0.0 15.0 0.0 0.0 0.0 15.0" Properties=species:S:1:pos:R:3 energy=-0.0091308884 pbc="T T T"
O       -0.00128971      -0.00456889       0.00000000
H        1.02933509      -0.02445668       0.00000000
H       -0.28755331       1.02591623       0.00000000
3
Lattice="15.0 0.0 0.0 0.0 15.0 0.0 0.0 0.0 15.0" Properties=species:S:1:pos:R:3 energy=-0.0029061010 pbc="T T T"
O        0.01131449       0.00698045       0.00000000
H        0.92756770      -0.13715776       0.00000000
H       -0.38582675       0.95532092       0.00000000
3
Lattice="15.0 0.0 0.0 0.0 15.0 0.0 0.0 0.0 15.0" Properties=species:S:1:pos:R:3 energy=-0.0026999374 pbc="T T T"
O       -0.00593197      -0.00619234       0.00000000
H        1.02348245       0.04241458       0.00000000
H       -0.20802302       0.98480985       0.00000000
3
Lattice="15.0 0.0 0.0 0.0 15.0 0.0 0.0 0.0 15.0" Properties=species:S:1:pos:R:3 energy=-0.0015714708 pbc="T T T"
O        0.00053570      -0.00105576       0.00000000
H        0.93847485       0.01253220       0.00000000
H       -0.22566286       0.93317081       0.00000000
3
Lattice="15.0 0.0 0.0 0.0 15.0 0.0 0.0 0.0 15.0" Properties=species:S:1:pos:R:3 energy=-0.1372199210 pbc="T T T"
O       -0.01693765      -0.00944497       0.00000000
H        1.11732231       0.11542869       0.00000000
H       -0.12719277       0.96341728       0.00000000
3
Lattice="15.0 0.0 0.0 0.0 15.0 0.0 0.0 0.0 15.0" Properties=species:S:1:pos:R:3 energy=0.2899100347 pbc="T T T"
O        0.00044697       0.01413011       0.00000000
H        0.96924294      -0.05811680       0.00000000
H       -0.25502470       0.76280919       0.00000000
3
Lattice="15.0 0.0 0.0 0.0 15.0 0.0 0.0 0.0 15.0" Properties=species:S:1:pos:R:3 energy=0.0044756053 pbc="T T T"
O       -0.01154867      -0.01564403       0.00000000
H        1.05457862       0.11727005       0.00000000
H       -0.14997590       1.05995939       0.00000000
3
Lattice="15.0 0.0 0.0 0.0 15.0 0.0 0.0 0.0 15.0" Properties=species:S:1:pos:R:3 energy=0.1102388905 pbc="T T T"
O        0.00237330       0.01867244       0.00000000
H        1.02362659      -0.13839982       0.00000000
H       -0.33998268       0.77100277       0.00000000
3
Lattice="15.0 0.0 0.0 0.0 15.0 0.0 0.0 0.0 15.0" Properties=species:S:1:pos:R:3 energy=0.0312862160 pbc="T T T"
O        0.00621843      -0.00263311       0.00000000
H        0.87722799      -0.00497191       0.00000000
H       -0.25460544       0.97570838       0.00000000
3
Lattice="15.0 0.0 0.0 0.0 15.0 0.0 0.0 0.0 15.0" Properties=species:S:1:pos:R:3 energy=0.1655580224 pbc="T T T"
O        0.00291165      -0.01331362       0.00000000
H        0.81774846       0.11562221       0.00000000
H       -0.14264161       1.02462096       0.00000000
3
Lattice="15.0 0.0 0.0 0.0 15.0 0.0 0.0 0.0 15.0" Properties=species:S:1:pos:R:3 energy=0.0643604891 pbc="T T T"
O       -0.00257346       0.01102282       0.00000000
H        1.02913345      -0.05760836       0.00000000
H       -0.26697868       0.81161606       0.00000000
3
Lattice="15.0 0.0 0.0 0.0 15.0 0.0 0.0 0.0 15.0" Properties=species:S:1:pos:R:3 energy=-0.0577973433 pbc="T T T"
O       -0.00627916       0.00431002       0.00000000
H        1.05855799      -0.01363631       0.00000000
H       -0.23758989       0.87418091       0.00000000
3
Lattice="15.0 0.0 0.0 0.0 15.0 0.0 0.0 0.0 15.0" Properties=species:S:1:pos:R:3 energy=0.0747520937 pbc="T T T"
O       -0.00490985       0.00582313       0.00000000
H        1.00670114       0.00498858       0.00000000
H       -0.20746457       0.83154160       0.00000000
3
Lattice="15.0 0.0 0.0 0.0 15.0 0.0 0.0 0.0 15.0" Properties=species:S:1:pos:R:3 energy=-0.0616228337 pbc="T T T"
O       -0.00696108      -0.01847021       0.00000000
H        0.97120334       0.13438069       0.00000000
H       -0.13940859       1.08770198       0.00000000
3
Lattice="15.0 0.0 0.0 0.0 15.0 0.0 0.0 0.0 15.0" Properties=species:S:1:pos:R:3 energy=0.0017879230 pbc="T T T"
O        0.00377239       0.00899603       0.00000000
H        0.96125888      -0.07672205       0.00000000
H       -0.29981786       0.86289622       0.00000000
3
Lattice="15.0 0.0 0.0 0.0 15.0 0.0 0.0 0.0 15.0" Properties=species:S:1:pos:R:3 energy=-0.0048184943 pbc="T T T"
O       -0.00747960      -0.01472929       0.00000000
H        0.97202785       0.12834313       0.00000000
H       -0.13200396       1.03436833       0.00000000
3
Lattice="15.0 0.0 0.0 0.0 15.0 0.0 0.0 0.0 15.0" Properties=species:S:1:pos:R:3 energy=0.0325666609 pbc="T T T"
O        0.00202215      -0.00374083       0.00000000
H        0.86724516       0.05798531       0.00000000
H       -0.17802299       0.93033108       0.00000000
3
Lattice="15.0 0.0 0.0 0.0 15.0 0.0 0.0 0.0 15.0" Properties=species:S:1:pos:R:3 energy=-0.0043981200 pbc="T T T"
O       -0.00749595      -0.00566858       0.00000000
H        1.00768133       0.07230875       0.00000000
H       -0.16739952       0.94660305       0.00000000
3
Lattice="15.0 0.0 0.0 0.0 15.0 0.0 0.0 0.0 15.0" Properties=species:S:1:pos:R:3 energy=-0.0041954724 pbc="T T T"
O        0.00634239       0.00731938       0.00000000
H        0.93707989      -0.08433607       0.00000000
H       -0.31642682       0.89711992       0.00000000
3
Lattice="15.0 0.0 0.0 0.0 15.0 0.0 0.0 0.0 15.0" Properties=species:S:1:pos:R:3 energy=-0.0581221205 pbc="T T T"
O       -0.00447104      -0.01724543       0.00000000
H        0.93091253       0.13112098       0.00000000
H       -0.13863655       1.07152327       0.00000000
3
Lattice="15.0 0.0 0.0 0.0 15.0 0.0 0.0 0.0 15.0" Properties=species:S:1:pos:R:3 energy=-0.0062120028 pbc="T T T"
O        0.00837232       0.01009185       0.00000000
H        0.94626431      -0.12522089       0.00000000
H       -0.35782886       0.89400386       0.00000000
3
Lattice="15.0 0.0 0.0 0.0 15.0 0.0 0.0 0.0 15.0" Properties=species:S:1:pos:R:3 energy=-0.0067256402 pbc="T T T"
O       -0.00908925       0.00126334       0.00000000
H        1.04131636       0.04398373       0.00000000
H       -0.17574868       0.86491365       0.00000000
3
Lattice="15.0 0.0 0.0 0.0 15.0 0.0 0.0 0.0 15.0" Properties=species:S:1:pos:R:3 energy=-0.1833861848 pbc="T T T"
O       -0.00501226       0.00714593       0.00000000
H        1.11967095      -0.08564119       0.00000000
H       -0.31881145       0.90117848       0.00000000
3
Lattice="15.0 0.0 0.0 0.0 15.0 0.0 0.0 0.0 15.0" Properties=species:S:1:pos:R:3 energy=0.0077677084 pbc="T T T"
O       -0.00866782      -0.01127924       0.00000000
H        0.98407512       0.12276074       0.00000000
H       -0.12519350       0.98519602       0.00000000
3
Lattice="15.0 0.0 0.0 0.0 15.0 0.0 0.0 0.0 15.0" Properties=species:S:1:pos:R:3 energy=-0.0022427983 pbc="T T T"
O        0.00372439       0.00122527       0.00000000
H        0.98019145      -0.06634649       0.00000000
H       -0.31798820       0.97584849       0.00000000
3
Lattice="15.0 0.0 0.0 0.0 15.0 0.0 0.0 0.0 15.0" Properties=species:S:1:pos:R:3 energy=-0.0022041715 pbc="T T T"
O        0.00599043       0.00312958       0.00000000
H        0.97319467      -0.09484053       0.00000000
H       -0.34695597       0.97411977       0.00000000
3
Lattice="15.0 0.0 0.0 0.0 15.0 0.0 0.0 0.0 15.0" Properties=species:S:1:pos:R:3 energy=0.0010174304 pbc="T T T"
O        0.01098253       0.00830861       0.00000000
H        0.92142736      -0.13248368       0.00000000
H       -0.37441800       0.92956795       0.00000000
3
Lattice="15.0 0.0 0.0 0.0 15.0 0.0 0.0 0.0 15.0" Properties=species:S:1:pos:R:3 energy=-0.1465429556 pbc="T T T"
O        0.01047333      -0.00239904       0.00000000
H        0.89839840      -0.07458610       0.00000000
H       -0.34330594       1.04160826       0.00000000
3
Lattice="15.0 0.0 0.0 0.0 15.0 0.0 0.0 0.0 15.0" Properties=species:S:1:pos:R:3 energy=-0.0042523025 pbc="T T T"
O       -0.00084867       0.00167285       0.00000000
H        1.00180189      -0.02817955       0.00000000
H       -0.26701999       0.93057790       0.00000000
3
Lattice="15.0 0.0 0.0 0.0 15.0 0.0 0.0 0.0 15.0" Properties=species:S:1:pos:R:3 energy=-0.1128148107 pbc="T T T"
O       -0.01255932      -0.00677388       0.00000000
H        1.12309361       0.04857206       0.00000000
H       -0.20245312       0.98788223       0.00000000
3
Lattice="15.0 0.0 0.0 0.0 15.0 0.0 0.0 0.0 15.0" Properties=species:S:1:pos:R:3 energy=-0.1234673430 pbc="T T T"
O        0.00174958      -0.00911088       0.00000000
H        0.95956559       0.00657646       0.00000000
H       -0.26601874       1.06696735       0.00000000
3
Lattice="15.0 0.0 0.0 0.0 15.0 0.0 0.0 0.0 15.0" Properties=species:S:1:pos:R:3 energy=0.1497237890 pbc="T T T"
O       -0.00444048       0.00613401       0.00000000
H        0.97909780       0.01965917       0.00000000
H       -0.18731004       0.81193689       0.00000000
3
Lattice="15.0 0.0 0.0 0.0 15.0 0.0 0.0 0.0 15.0" Properties=species:S:1:pos:R:3 energy=0.0520549244 pbc="T T T"
O       -0.00403432       0.00183094       0.00000000
H        0.93398136       0.06324653       0.00000000
H       -0.14863847       0.83664203       0.00000000
3
Lattice="15.0 0.0 0.0 0.0 15.0 0.0 0.0 0.0 15.0" Properties=species:S:1:pos:R:3 energy=-0.0695325573 pbc="T T T"
O        0.00004219       0.01483286       0.00000000
H        1.07205699      -0.13518021       0.00000000
H       -0.35141666       0.82872039       0.00000000
3
Lattice="15.0 0.0 0.0 0.0 15.0 0.0 0.0 0.0 15.0" Properties=species:S:1:pos:R:3 energy=-0.0357912275 pbc="T T T"
O       -0.00623701       0.00941155       0.00000000
H        1.07284060      -0.04132143       0.00000000
H       -0.25254231       0.82090119       0.00000000
3
Lattice="15.0 0.0 0.0 0.0 15.0 0.0 0.0 0.0 15.0" Properties=species:S:1:pos:R:3 energy=0.1709933804 pbc="T T T"
O        0.00413363      -0.00690535       0.00000000
H        0.81846628       0.07981276       0.00000000
H       -0.16275421       0.95872670       0.00000000
3
Lattice="15.0 0.0 0.0 0.0 15.0 0.0 0.0 0.0 15.0" Properties=species:S:1:pos:R:3 energy=0.0470238656 pbc="T T T"
O       -0.00268051       0.00920195       0.00000000
H        1.01956366      -0.04312039       0.00000000
H       -0.25570955       0.82602655       0.00000000
3
Lattice="15.0 0.0 0.0 0.0 15.0 0.0 0.0 0.0 15.0" Properties=species:S:1:pos:R:3 energy=0.0203645496 pbc="T T T"
O        0.00215418       0.00371917       0.00000000
H        1.04367647      -0.10415109       0.00000000
H       -0.35655386       0.97407345       0.00000000
3
Lattice="15.0 0.0 0.0 0.0 15.0 0.0 0.0 0.0 15.0" Properties=species:S:1:pos:R:3 energy=-0.0861997856 pbc="T T T"
O        0.00577298      -0.00180766       0.00000000
H        0.99721673      -0.09525717       0.00000000
H       -0.36752682       1.05289419       0.00000000
3
Lattice="15.0 0.0 0.0 0.0 15.0 0.0 0.0 0.0 15.0" Properties=species:S:1:pos:R:3 energy=0.0034998232 pbc="T T T"
O        0.00274552       0.00755273       0.00000000
H        0.96113581      -0.05942356       0.00000000
H       -0.28339721       0.86850393       0.00000000
3
Lattice="15.0 0.0 0.0 0.0 15.0 0.0 0.0 0.0 15.0" Properties=species:S:1:pos:R:3 energy=0.0270985849 pbc="T T T"
O       -0.00351767       0.01152873       0.00000000
H        1.05110616      -0.06462836       0.00000000
H       -0.27396629       0.81060702       0.00000000
3
Lattice="15.0 0.0 0.0 0.0 15.0 0.0 0.0 0.0 15.0" Properties=species:S:1:pos:R:3 energy=0.0085432692 pbc="T T T"
O        0.00353724       0.00492889       0.00000000
H        0.99640713      -0.08830201       0.00000000
H       -0.33123433       0.93902489       0.00000000
3
Lattice="15.0 0.0 0.0 0.0 15.0 0.0 0.0 0.0 15.0" Properties=species:S:1:pos:R:3 energy=-0.0500540358 pbc="T T T"
O        0.00110116      -0.00663200       0.00000000
H        0.96154000       0.00522348       0.00000000
H       -0.25770237       1.02897874       0.00000000
3
Lattice="15.0 0.0 0.0 0.0 15.0 0.0 0.0 0.0 15.0" Properties=species:S:1:pos:R:3 energy=-0.1152825231 pbc="T T T"
O       -0.00404287      -0.01508889       0.00000000
H        0.99985364       0.06551460       0.00000000
H       -0.21437476       1.10290444       0.00000000
3
Lattice="15.0 0.0 0.0 0.0 15.0 0.0 0.0 0.0 15.0" Properties=species:S:1:pos:R:3 energy=-0.0110959469 pbc="T T T"
O        0.00084597      -0.00720427       0.00000000
H        0.92010582       0.04234634       0.00000000
H       -0.21221708       1.00093785       0.00000000
3
Lattice="15.0 0.0 0.0 0.0 15.0 0.0 0.0 0.0 15.0" Properties=species:S:1:pos:R:3 energy=-0.0130572870 pbc="T T T"
O       -0.01136772      -0.00709081       0.00000000
H        1.03054400       0.10675234       0.00000000
H       -0.12881361       0.93473116       0.00000000
3
Lattice="15.0 0.0 0.0 0.0 15.0 0.0 0.0 0.0 15.0" Properties=species:S:1:pos:R:3 energy=-0.0021840504 pbc="T T T"
O       -0.00013728       0.00328089       0.00000000
H        1.03460933      -0.06748932       0.00000000
H       -0.31111867       0.94436725       0.00000000
3
Lattice="15.0 0.0 0.0 0.0 15.0 0.0 0.0 0.0 15.0" Properties=species:S:1:pos:R:3 energy=-0.0563125672 pbc="T T T"
O       -0.00800710      -0.00350361       0.00000000
H        1.09776528       0.00183399       0.00000000
H       -0.24937309       0.98271882       0.00000000
3
Lattice="15.0 0.0 0.0 0.0 15.0 0.0 0.0 0.0 15.0" Properties=species:S:1:pos:R:3 energy=0.0683524519 pbc="T T T"
O        0.00253507      -0.00786645       0.00000000
H        0.85663807       0.07290059       0.00000000
H       -0.17555575       0.98089237       0.00000000
3
Lattice="15.0 0.0 0.0 0.0 15.0 0.0 0.0 0.0 15.0" Properties=species:S:1:pos:R:3 energy=-0.0077016578 pbc="T T T"