3
Lattice="15.0 0.0 0.0 0.0 15.0 0.0 0.0 0.0 15.0" Properties=species:S:1:pos:R:3 energy=5.651228331 pbc="T T T"
O        0.00000000       0.00000000       0.00000000
H        0.95883000       0.00000000       0.00000000
H        0.35000000       0.60622000       0.00000000
3
Lattice="15.0 0.0 0.0 0.0 15.0 0.0 0.0 0.0 15.0" Properties=species:S:1:pos:R:3 energy=4.420011636 pbc="T T T"
O        0.00000000       0.00000000       0.00000000
H        0.95883000       0.00000000       0.00000000
H        0.36842000       0.63812000       0.00000000
3
Lattice="15.0 0.0 0.0 0.0 15.0 0.0 0.0 0.0 15.0" Properties=species:S:1:pos:R:3 energy=3.5001357201 pbc="T T T"
O        0.00000000       0.00000000       0.00000000
H        0.95883000       0.00000000       0.00000000
H        0.38684000       0.67003000       0.00000000
3
Lattice="15.0 0.0 0.0 0.0 15.0 0.0 0.0 0.0 15.0" Properties=species:S:1:pos:R:3 energy=2.8236985533 pbc="T T T"
O        0.00000000       0.00000000       0.00000000
H        0.95883000       0.00000000       0.00000000
H        0.40527000       0.70194000       0.00000000
3
Lattice="15.0 0.0 0.0 0.0 15.0 0.0 0.0 0.0 15.0" Properties=species:S:1:pos:R:3 energy=2.3379690818 pbc="T T T"
O        0.00000000       0.00000000       0.00000000
H        0.95883000       0.00000000       0.00000000
H        0.42369000       0.73384000       0.00000000
3
Lattice="15.0 0.0 0.0 0.0 15.0 0.0 0.0 0.0 15.0" Properties=species:S:1:pos:R:3 energy=2.0014067167 pbc="T T T"
O        0.00000000       0.00000000       0.00000000
H        0.95883000       0.00000000       0.00000000
H        0.44211000       0.76575000       0.00000000
3
Lattice="15.0 0.0 0.0 0.0 15.0 0.0 0.0 0.0 15.0" Properties=species:S:1:pos:R:3 energy=1.7820266887 pbc="T T T"
O        0.00000000       0.00000000       0.00000000
H        0.95883000       0.00000000       0.00000000
H        0.46053000       0.79765000       0.00000000
3
Lattice="15.0 0.0 0.0 0.0 15.0 0.0 0.0 0.0 15.0" Properties=species:S:1:pos:R:3 energy=1.6543956337 pbc="T T T"
O        0.00000000       0.00000000       0.00000000
H        0.95883000       0.00000000       0.00000000
H        0.47895000       0.82956000       0.00000000
3
Lattice="15.0 0.0 0.0 0.0 15.0 0.0 0.0 0.0 15.0" Properties=species:S:1:pos:R:3 energy=1.5987082207 pbc="T T T"
O        0.00000000       0.00000000       0.00000000
H        0.95883000       0.00000000       0.00000000
H        0.49737000       0.86147000       0.00000000
3
Lattice="15.0 0.0 0.0 0.0 15.0 0.0 0.0 0.0 15.0" Properties=species:S:1:pos:R:3 energy=1.5992507369 pbc="T T T"
O        0.00000000       0.00000000       0.00000000
H        0.95883000       0.00000000       0.00000000
H        0.51579000       0.89337000       0.00000000
3
Lattice="15.0 0.0 0.0 0.0 15.0 0.0 0.0 0.0 15.0" Properties=species:S:1:pos:R:3 energy=1.6434886708 pbc="T T T"
O        0.00000000       0.00000000       0.00000000
H        0.95883000       0.00000000       0.00000000
H        0.53421000       0.92528000       0.00000000
3
Lattice="15.0 0.0 0.0 0.0 15.0 0.0 0.0 0.0 15.0" Properties=species:S:1:pos:R:3 energy=1.721479333 pbc="T T T"
O        0.00000000       0.00000000       0.00000000
H        0.95883000       0.00000000       0.00000000
H        0.55263000       0.95718000       0.00000000
3
Lattice="15.0 0.0 0.0 0.0 15.0 0.0 0.0 0.0 15.0" Properties=species:S:1:pos:R:3 energy=1.8252868549 pbc="T T T"
O        0.00000000       0.00000000       0.00000000
H        0.95883000       0.00000000       0.00000000
H        0.57106000       0.98910000       0.00000000
3
Lattice="15.0 0.0 0.0 0.0 15.0 0.0 0.0 0.0 15.0" Properties=species:S:1:pos:R:3 energy=1.9483668191 pbc="T T T"
O        0.00000000       0.00000000       0.00000000
H        0.95883000       0.00000000       0.00000000
H        0.58948000       1.02100000       0.00000000
3
Lattice="15.0 0.0 0.0 0.0 15.0 0.0 0.0 0.0 15.0" Properties=species:S:1:pos:R:3 energy=2.0856034797 pbc="T T T"
O        0.00000000       0.00000000       0.00000000
H        0.95883000       0.00000000       0.00000000
H        0.60790000       1.05291000       0.00000000
3
Lattice="15.0 0.0 0.0 0.0 15.0 0.0 0.0 0.0 15.0" Properties=species:S:1:pos:R:3 energy=2.2327654471 pbc="T T T"
O        0.00000000       0.00000000       0.00000000
H        0.95883000       0.00000000       0.00000000
H        0.62632000       1.08481000       0.00000000
3
Lattice="15.0 0.0 0.0 0.0 15.0 0.0 0.0 0.0 15.0" Properties=species:S:1:pos:R:3 energy=2.3864678834 pbc="T T T"
O        0.00000000       0.00000000       0.00000000
H        0.95883000       0.00000000       0.00000000
H        0.64474000       1.11671000       0.00000000
3
Lattice="15.0 0.0 0.0 0.0 15.0 0.0 0.0 0.0 15.0" Properties=species:S:1:pos:R:3 energy=2.5440058216 pbc="T T T"
O        0.00000000       0.00000000       0.00000000
H        0.95883000       0.00000000       0.00000000
H        0.66316000       1.14863000       0.00000000
3
Lattice="15.0 0.0 0.0 0.0 15.0 0.0 0.0 0.0 15.0" Properties=species:S:1:pos:R:3 energy=2.703039499 pbc="T T T"
O        0.00000000       0.00000000       0.00000000
H        0.95883000       0.00000000       0.00000000
H        0.68158000       1.18053000       0.00000000
3
Lattice="15.0 0.0 0.0 0.0 15.0 0.0 0.0 0.0 15.0" Properties=species:S:1:pos:R:3 energy=2.8618318685 pbc="T T T"
O        0.00000000       0.00000000       0.00000000
H        0.95883000       0.00000000       0.00000000
H        0.70000000       1.21244000       0.00000000
3
Lattice="15.0 0.0 0.0 0.0 15.0 0.0 0.0 0.0 15.0" Properties=species:S:1:pos:R:3 energy=5.3429546479 pbc="T T T"
O        0.00000000       0.00000000       0.00000000
H        0.95883000       0.00000000       0.00000000
H        0.31667000       0.62428000       0.00000000
3
Lattice="15.0 0.0 0.0 0.0 15.0 0.0 0.0 0.0 15.0" Properties=species:S:1:pos:R:3 energy=4.1168979038 pbc="T T T"
O        0.00000000       0.00000000       0.00000000
H        0.95883000       0.00000000       0.00000000
H        0.33333000       0.65713000       0.00000000
3
Lattice="15.0 0.0 0.0 0.0 15.0 0.0 0.0 0.0 15.0" Properties=species:S:1:pos:R:3 energy=3.2033952102 pbc="T T T"
O        0.00000000       0.00000000       0.00000000
H        0.95883000       0.00000000       0.00000000
H        0.35000000       0.68999000       0.00000000
3
Lattice="15.0 0.0 0.0 0.0 15.0 0.0 0.0 0.0 15.0" Properties=species:S:1:pos:R:3 energy=2.5345215161 pbc="T T T"
O        0.00000000       0.00000000       0.00000000
H        0.95883000       0.00000000       0.00000000
H        0.36667000       0.72285000       0.00000000
3
Lattice="15.0 0.0 0.0 0.0 15.0 0.0 0.0 0.0 15.0" Properties=species:S:1:pos:R:3 energy=2.0571959656 pbc="T T T"
O        0.00000000       0.00000000       0.00000000
H        0.95883000       0.00000000       0.00000000
H        0.38333000       0.75571000       0.00000000
3
Lattice="15.0 0.0 0.0 0.0 15.0 0.0 0.0 0.0 15.0" Properties=species:S:1:pos:R:3 energy=1.7301106568 pbc="T T T"
O        0.00000000       0.00000000       0.00000000
H        0.95883000       0.00000000       0.00000000
H        0.40000000       0.78856000       0.00000000
3
Lattice="15.0 0.0 0.0 0.0 15.0 0.0 0.0 0.0 15.0" Properties=species:S:1:pos:R:3 energy=1.5206705671 pbc="T T T"
O        0.00000000       0.00000000       0.00000000
H        0.95883000       0.00000000       0.00000000
H        0.41667000       0.82142000       0.00000000
3
Lattice="15.0 0.0 0.0 0.0 15.0 0.0 0.0 0.0 15.0" Properties=species:S:1:pos:R:3 energy=1.4035441195 pbc="T T T"
O        0.00000000       0.00000000       0.00000000
H        0.95883000       0.00000000       0.00000000
H        0.43333000       0.85427000       0.00000000
3
Lattice="15.0 0.0 0.0 0.0 15.0 0.0 0.0 0.0 15.0" Properties=species:S:1:pos:R:3 energy=1.3586171144 pbc="T T T"
O        0.00000000       0.00000000       0.00000000
H        0.95883000       0.00000000       0.00000000
H        0.45000000       0.88713000       0.00000000
3
Lattice="15.0 0.0 0.0 0.0 15.0 0.0 0.0 0.0 15.0" Properties=species:S:1:pos:R:3 energy=1.3700327316 pbc="T T T"
O        0.00000000       0.00000000       0.00000000
H        0.95883000       0.00000000       0.00000000
H        0.46667000       0.91999000       0.00000000
3
Lattice="15.0 0.0 0.0 0.0 15.0 0.0 0.0 0.0 15.0" Properties=species:S:1:pos:R:3 energy=1.4251129661 pbc="T T T"
O        0.00000000       0.00000000       0.00000000
H        0.95883000       0.00000000       0.00000000
H        0.48333000       0.95284000       0.00000000
3
Lattice="15.0 0.0 0.0 0.0 15.0 0.0 0.0 0.0 15.0" Properties=species:S:1:pos:R:3 energy=1.5138445692 pbc="T T T"
O        0.00000000       0.00000000       0.00000000
H        0.95883000       0.00000000       0.00000000
H        0.50000000       0.98570000       0.00000000
3
Lattice="15.0 0.0 0.0 0.0 15.0 0.0 0.0 0.0 15.0" Properties=species:S:1:pos:R:3 energy=1.628110409 pbc="T T T"
O        0.00000000       0.00000000       0.00000000
H        0.95883000       0.00000000       0.00000000
H        0.51667000       1.01856000       0.00000000
3
Lattice="15.0 0.0 0.0 0.0 15.0 0.0 0.0 0.0 15.0" Properties=species:S:1:pos:R:3 energy=1.7613650969 pbc="T T T"
O        0.00000000       0.00000000       0.00000000
H        0.95883000       0.00000000       0.00000000
H        0.53333000       1.05142000       0.00000000
3
Lattice="15.0 0.0 0.0 0.0 15.0 0.0 0.0 0.0 15.0" Properties=species:S:1:pos:R:3 energy=1.9084251549 pbc="T T T"
O        0.00000000       0.00000000       0.00000000
H        0.95883000       0.00000000       0.00000000
H        0.55000000       1.08427000       0.00000000
3
Lattice="15.0 0.0 0.0 0.0 15.0 0.0 0.0 0.0 15.0" Properties=species:S:1:pos:R:3 energy=2.0650627446 pbc="T T T"
O        0.00000000       0.00000000       0.00000000
H        0.95883000       0.00000000       0.00000000
H        0.56667000       1.11713000       0.00000000
3
Lattice="15.0 0.0 0.0 0.0 15.0 0.0 0.0 0.0 15.0" Properties=species:S:1:pos:R:3 energy=2.227764778 pbc="T T T"
O        0.00000000       0.00000000       0.00000000
H        0.95883000       0.00000000       0.00000000
H        0.58333000       1.14998000       0.00000000
3
Lattice="15.0 0.0 0.0 0.0 15.0 0.0 0.0 0.0 15.0" Properties=species:S:1:pos:R:3 energy=2.3939361625 pbc="T T T"
O        0.00000000       0.00000000       0.00000000
H        0.95883000       0.00000000       0.00000000
H        0.60000000       1.18285000       0.00000000
3
Lattice="15.0 0.0 0.0 0.0 15.0 0.0 0.0 0.0 15.0" Properties=species:S:1:pos:R:3 energy=2.5611792811 pbc="T T T"
O        0.00000000       0.00000000       0.00000000
H        0.95883000       0.00000000       0.00000000
H        0.61667000       1.21570000       0.00000000
3
Lattice="15.0 0.0 0.0 0.0 15.0 0.0 0.0 0.0 15.0" Properties=species:S:1:pos:R:3 energy=2.72771769 pbc="T T T"
O        0.00000000       0.00000000       0.00000000
H        0.95883000       0.00000000       0.00000000
H        0.63333000       1.24855000       0.00000000
3
Lattice="15.0 0.0 0.0 0.0 15.0 0.0 0.0 0.0 15.0" Properties=species:S:1:pos:R:3 energy=5.0648918782 pbc="T T T"
O        0.00000000       0.00000000       0.00000000
H        0.95883000       0.00000000       0.00000000
H        0.28240000       0.64051000       0.00000000
3
Lattice="15.0 0.0 0.0 0.0 15.0 0.0 0.0 0.0 15.0" Properties=species:S:1:pos:R:3 energy=3.8441240072 pbc="T T T"
O        0.00000000       0.00000000       0.00000000
H        0.95883000       0.00000000       0.00000000
H        0.29727000       0.67421000       0.00000000
3
Lattice="15.0 0.0 0.0 0.0 15.0 0.0 0.0 0.0 15.0" Properties=species:S:1:pos:R:3 energy=2.9370053823 pbc="T T T"
O        0.00000000       0.00000000       0.00000000
H        0.95883000       0.00000000       0.00000000
H        0.31213000       0.70792000       0.00000000
3
Lattice="15.0 0.0 0.0 0.0 15.0 0.0 0.0 0.0 15.0" Properties=species:S:1:pos:R:3 energy=2.2751626559 pbc="T T T"
O        0.00000000       0.00000000       0.00000000
H        0.95883000       0.00000000       0.00000000
H        0.32700000       0.74164000       0.00000000
3
Lattice="15.0 0.0 0.0 0.0 15.0 0.0 0.0 0.0 15.0" Properties=species:S:1:pos:R:3 energy=1.8058117149 pbc="T T T"
O        0.00000000       0.00000000       0.00000000
H        0.95883000       0.00000000       0.00000000
H        0.34186000       0.77535000       0.00000000
3
Lattice="15.0 0.0 0.0 0.0 15.0 0.0 0.0 0.0 15.0" Properties=species:S:1:pos:R:3 energy=1.4871985052 pbc="T T T"
O        0.00000000       0.00000000       0.00000000
H        0.95883000       0.00000000       0.00000000
H        0.35672000       0.80906000       0.00000000
3
Lattice="15.0 0.0 0.0 0.0 15.0 0.0 0.0 0.0 15.0" Properties=species:S:1:pos:R:3 energy=1.2867902365 pbc="T T T"
O        0.00000000       0.00000000       0.00000000
H        0.95883000       0.00000000       0.00000000
H        0.37158000       0.84277000       0.00000000
3
Lattice="15.0 0.0 0.0 0.0 15.0 0.0 0.0 0.0 15.0" Properties=species:S:1:pos:R:3 energy=1.1790257872 pbc="T T T"
O        0.00000000       0.00000000       0.00000000
H        0.95883000       0.00000000       0.00000000
H        0.38645000       0.87648000       0.00000000
3
Lattice="15.0 0.0 0.0 0.0 15.0 0.0 0.0 0.0 15.0" Properties=species:S:1:pos:R:3 energy=1.1436308164 pbc="T T T"
O        0.00000000       0.00000000       0.00000000
H        0.95883000       0.00000000       0.00000000
H        0.40131000       0.91020000       0.00000000
3
Lattice="15.0 0.0 0.0 0.0 15.0 0.0 0.0 0.0 15.0" Properties=species:S:1:pos:R:3 energy=1.1647062933 pbc="T T T"
O        0.00000000       0.00000000       0.00000000
H        0.95883000       0.00000000       0.00000000
H        0.41618000       0.94390000       0.00000000
3
Lattice="15.0 0.0 0.0 0.0 15.0 0.0 0.0 0.0 15.0" Properties=species:S:1:pos:R:3 energy=1.2293932627 pbc="T T T"
O        0.00000000       0.00000000       0.00000000
H        0.95883000       0.00000000       0.00000000
H        0.43104000       0.97761000       0.00000000
3
Lattice="15.0 0.0 0.0 0.0 15.0 0.0 0.0 0.0 15.0" Properties=species:S:1:pos:R:3 energy=1.327567195 pbc="T T T"
O        0.00000000       0.00000000       0.00000000
H        0.95883000       0.00000000       0.00000000
H        0.44590000       1.01132000       0.00000000
3
Lattice="15.0 0.0 0.0 0.0 15.0 0.0 0.0 0.0 15.0" Properties=species:S:1:pos:R:3 energy=1.4511338811 pbc="T T T"
O        0.00000000       0.00000000       0.00000000
H        0.95883000       0.00000000       0.00000000
H        0.46077000       1.04504000       0.00000000
3
Lattice="15.0 0.0 0.0 0.0 15.0 0.0 0.0 0.0 15.0" Properties=species:S:1:pos:R:3 energy=1.5934183817 pbc="T T T"
O        0.00000000       0.00000000       0.00000000
H        0.95883000       0.00000000       0.00000000
H        0.47563000       1.07875000       0.00000000
3
Lattice="15.0 0.0 0.0 0.0 15.0 0.0 0.0 0.0 15.0" Properties=species:S:1:pos:R:3 energy=1.7491954794 pbc="T T T"
O        0.00000000       0.00000000       0.00000000
H        0.95883000       0.00000000       0.00000000
H        0.49049000       1.11246000       0.00000000
3
Lattice="15.0 0.0 0.0 0.0 15.0 0.0 0.0 0.0 15.0" Properties=species:S:1:pos:R:3 energy=1.9142066112 pbc="T T T"
O        0.00000000       0.00000000       0.00000000
H        0.95883000       0.00000000       0.00000000
H        0.50535000       1.14617000       0.00000000
3
Lattice="15.0 0.0 0.0 0.0 15.0 0.0 0.0 0.0 15.0" Properties=species:S:1:pos:R:3 energy=2.0850529743 pbc="T T T"
O        0.00000000       0.00000000       0.00000000
H        0.95883000       0.00000000       0.00000000
H        0.52022000       1.17988000       0.00000000
3
Lattice="15.0 0.0 0.0 0.0 15.0 0.0 0.0 0.0 15.0" Properties=species:S:1:pos:R:3 energy=2.2588898444 pbc="T T T"
O        0.00000000       0.00000000       0.00000000
H        0.95883000       0.00000000       0.00000000
H        0.53508000       1.21359000       0.00000000
3
Lattice="15.0 0.0 0.0 0.0 15.0 0.0 0.0 0.0 15.0" Properties=species:S:1:pos:R:3 energy=2.4335575977 pbc="T T T"
O        0.00000000       0.00000000       0.00000000
H        0.95883000       0.00000000       0.00000000
H        0.54995000       1.24730000       0.00000000
3
Lattice="15.0 0.0 0.0 0.0 15.0 0.0 0.0 0.0 15.0" Properties=species:S:1:pos:R:3 energy=2.6071926708 pbc="T T T"
O        0.00000000       0.00000000       0.00000000
H        0.95883000       0.00000000       0.00000000
H        0.56481000       1.28101000       0.00000000
3
Lattice="15.0 0.0 0.0 0.0 15.0 0.0 0.0 0.0 15.0" Properties=species:S:1:pos:R:3 energy=4.8142780799 pbc="T T T"
O        0.00000000       0.00000000       0.00000000
H        0.95883000       0.00000000       0.00000000
H        0.24731000       0.65486000       0.00000000
3
Lattice="15.0 0.0 0.0 0.0 15.0 0.0 0.0 0.0 15.0" Properties=species:S:1:pos:R:3 energy=3.5986622195 pbc="T T T"
O        0.00000000       0.00000000       0.00000000
H        0.95883000       0.00000000       0.00000000
H        0.26033000       0.68932000       0.00000000
3
Lattice="15.0 0.0 0.0 0.0 15.0 0.0 0.0 0.0 15.0" Properties=species:S:1:pos:R:3 energy=2.6977303426 pbc="T T T"
O        0.00000000       0.00000000       0.00000000
H        0.95883000       0.00000000       0.00000000
H        0.27335000       0.72378000       0.00000000
3
Lattice="15.0 0.0 0.0 0.0 15.0 0.0 0.0 0.0 15.0" Properties=species:S:1:pos:R:3 energy=2.042590763 pbc="T T T"
O        0.00000000       0.00000000       0.00000000
H        0.95883000       0.00000000       0.00000000
H        0.28637000       0.75826000       0.00000000
3
Lattice="15.0 0.0 0.0 0.0 15.0 0.0 0.0 0.0 15.0" Properties=species:S:1:pos:R:3 energy=1.580671978 pbc="T T T"
O        0.00000000       0.00000000       0.00000000
H        0.95883000       0.00000000       0.00000000
H        0.29938000       0.79272000       0.00000000
3
Lattice="15.0 0.0 0.0 0.0 15.0 0.0 0.0 0.0 15.0" Properties=species:S:1:pos:R:3 energy=1.2698597148 pbc="T T T"
O        0.00000000       0.00000000       0.00000000
H        0.95883000       0.00000000       0.00000000
H        0.31240000       0.82719000       0.00000000
3
Lattice="15.0 0.0 0.0 0.0 15.0 0.0 0.0 0.0 15.0" Properties=species:S:1:pos:R:3 energy=1.0776772957 pbc="T T T"
O        0.00000000       0.00000000       0.00000000
H        0.95883000       0.00000000       0.00000000
H        0.32541000       0.86165000       0.00000000
3
Lattice="15.0 0.0 0.0 0.0 15.0 0.0 0.0 0.0 15.0" Properties=species:S:1:pos:R:3 energy=0.9783547708 pbc="T T T"
O        0.00000000       0.00000000       0.00000000
H        0.95883000       0.00000000       0.00000000
H        0.33843000       0.89611000       0.00000000
3
Lattice="15.0 0.0 0.0 0.0 15.0 0.0 0.0 0.0 15.0" Properties=species:S:1:pos:R:3 energy=0.9515476426 pbc="T T T"
O        0.00000000       0.00000000       0.00000000
H        0.95883000       0.00000000       0.00000000
H        0.35145000       0.93059000       0.00000000
3
Lattice="15.0 0.0 0.0 0.0 15.0 0.0 0.0 0.0 15.0" Properties=species:S:1:pos:R:3 energy=0.9811881292 pbc="T T T"
O        0.00000000       0.00000000       0.00000000
H        0.95883000       0.00000000       0.00000000
H        0.36446000       0.96505000       0.00000000
3
Lattice="15.0 0.0 0.0 0.0 15.0 0.0 0.0 0.0 15.0" Properties=species:S:1:pos:R:3 energy=1.0544803837 pbc="T T T"
O        0.00000000       0.00000000       0.00000000
H        0.95883000       0.00000000       0.00000000
H        0.37748000       0.99952000       0.00000000
3
Lattice="15.0 0.0 0.0 0.0 15.0 0.0 0.0 0.0 15.0" Properties=species:S:1:pos:R:3 energy=1.1611310709 pbc="T T T"
O        0.00000000       0.00000000       0.00000000
H        0.95883000       0.00000000       0.00000000
H        0.39050000       1.03398000       0.00000000
3
Lattice="15.0 0.0 0.0 0.0 15.0 0.0 0.0 0.0 15.0" Properties=species:S:1:pos:R:3 energy=1.2929240611 pbc="T T T"
O        0.00000000       0.00000000       0.00000000
H        0.95883000       0.00000000       0.00000000
H        0.40351000       1.06845000       0.00000000
3
Lattice="15.0 0.0 0.0 0.0 15.0 0.0 0.0 0.0 15.0" Properties=species:S:1:pos:R:3 energy=1.4433164499 pbc="T T T"
O        0.00000000       0.00000000       0.00000000
H        0.95883000       0.00000000       0.00000000
H        0.41653000       1.10292000       0.00000000
3
Lattice="15.0 0.0 0.0 0.0 15.0 0.0 0.0 0.0 15.0" Properties=species:S:1:pos:R:3 energy=1.6069219232 pbc="T T T"
O        0.00000000       0.00000000       0.00000000
H        0.95883000       0.00000000       0.00000000
H        0.42955000       1.13738000       0.00000000
3
Lattice="15.0 0.0 0.0 0.0 15.0 0.0 0.0 0.0 15.0" Properties=species:S:1:pos:R:3 energy=1.7794933032 pbc="T T T"
O        0.00000000       0.00000000       0.00000000
H        0.95883000       0.00000000       0.00000000
H        0.44256000       1.17185000       0.00000000
3
Lattice="15.0 0.0 0.0 0.0 15.0 0.0 0.0 0.0 15.0" Properties=species:S:1:pos:R:3 energy=1.9575787168 pbc="T T T"
O        0.00000000       0.00000000       0.00000000
H        0.95883000       0.00000000       0.00000000
H        0.45558000       1.20631000       0.00000000
3
Lattice="15.0 0.0 0.0 0.0 15.0 0.0 0.0 0.0 15.0" Properties=species:S:1:pos:R:3 energy=2.1384444266 pbc="T T T"
O        0.00000000       0.00000000       0.00000000
H        0.95883000       0.00000000       0.00000000
H        0.46860000       1.24078000       0.00000000
3
Lattice="15.0 0.0 0.0 0.0 15.0 0.0 0.0 0.0 15.0" Properties=species:S:1:pos:R:3 energy=2.3197896011 pbc="T T T"
O        0.00000000       0.00000000       0.00000000
H        0.95883000       0.00000000       0.00000000
H        0.48161000       1.27525000       0.00000000
3
Lattice="15.0 0.0 0.0 0.0 15.0 0.0 0.0 0.0 15.0" Properties=species:S:1:pos:R:3 energy=2.4998465177 pbc="T T T"
O        0.00000000       0.00000000       0.00000000
H        0.95883000       0.00000000       0.00000000
H        0.49463000       1.30971000       0.00000000
3
Lattice="15.0 0.0 0.0 0.0 15.0 0.0 0.0 0.0 15.0" Properties=species:S:1:pos:R:3 energy=4.5894074418 pbc="T T T"
O        0.00000000       0.00000000       0.00000000
H        0.95883000       0.00000000       0.00000000
H        0.21150000       0.66728000       0.00000000
3
Lattice="15.0 0.0 0.0 0.0 15.0 0.0 0.0 0.0 15.0" Properties=species:S:1:pos:R:3 energy=3.3787342848 pbc="T T T"
O        0.00000000       0.00000000       0.00000000
H        0.95883000       0.00000000       0.00000000
H        0.22263000       0.70240000       0.00000000
3
Lattice="15.0 0.0 0.0 0.0 15.0 0.0 0.0 0.0 15.0" Properties=species:S:1:pos:R:3 energy=2.4834707192 pbc="T T T"
O        0.00000000       0.00000000       0.00000000
H        0.95883000       0.00000000       0.00000000
H        0.23376000       0.73752000       0.00000000
3
Lattice="15.0 0.0 0.0 0.0 15.0 0.0 0.0 0.0 15.0" Properties=species:S:1:pos:R:3 energy=1.834775057 pbc="T T T"
O        0.00000000       0.00000000       0.00000000
H        0.95883000       0.00000000       0.00000000
H        0.24489000       0.77265000       0.00000000
3
Lattice="15.0 0.0 0.0 0.0 15.0 0.0 0.0 0.0 15.0" Properties=species:S:1:pos:R:3 energy=1.3796081762 pbc="T T T"
O        0.00000000       0.00000000       0.00000000
H        0.95883000       0.00000000       0.00000000
H        0.25602000       0.80777000       0.00000000
3
Lattice="15.0 0.0 0.0 0.0 15.0 0.0 0.0 0.0 15.0" Properties=species:S:1:pos:R:3 energy=1.0760528603 pbc="T T T"
O        0.00000000       0.00000000       0.00000000
H        0.95883000       0.00000000       0.00000000
H        0.26716000       0.84289000       0.00000000
3
Lattice="15.0 0.0 0.0 0.0 15.0 0.0 0.0 0.0 15.0" Properties=species:S:1:pos:R:3 energy=0.891378732 pbc="T T T"
O        0.00000000       0.00000000       0.00000000
H        0.95883000       0.00000000       0.00000000
H        0.27829000       0.87800000       0.00000000
3
Lattice="15.0 0.0 0.0 0.0 15.0 0.0 0.0 0.0 15.0" Properties=species:S:1:pos:R:3 energy=0.7996809572 pbc="T T T"
O        0.00000000       0.00000000       0.00000000
H        0.95883000       0.00000000       0.00000000
H        0.28942000       0.91312000       0.00000000
3
Lattice="15.0 0.0 0.0 0.0 15.0 0.0 0.0 0.0 15.0" Properties=species:S:1:pos:R:3 energy=0.7806258005 pbc="T T T"
O        0.00000000       0.00000000       0.00000000
H        0.95883000       0.00000000       0.00000000
H        0.30055000       0.94825000       0.00000000
3
Lattice="15.0 0.0 0.0 0.0 15.0 0.0 0.0 0.0 15.0" Properties=species:S:1:pos:R:3 energy=0.8180500768 pbc="T T T"
O        0.00000000       0.00000000       0.00000000
H        0.95883000       0.00000000       0.00000000
H        0.31168000       0.98337000       0.00000000
3
Lattice="15.0 0.0 0.0 0.0 15.0 0.0 0.0 0.0 15.0" Properties=species:S:1:pos:R:3 energy=0.8990382964 pbc="T T T"
O        0.00000000       0.00000000       0.00000000
H        0.95883000       0.00000000       0.00000000
H        0.32281000       1.01849000       0.00000000
3
Lattice="15.0 0.0 0.0 0.0 15.0 0.0 0.0 0.0 15.0" Properties=species:S:1:pos:R:3 energy=1.0132617436 pbc="T T T"
O        0.00000000       0.00000000       0.00000000
H        0.95883000       0.00000000       0.00000000
H        0.33394000       1.05360000       0.00000000
3
Lattice="15.0 0.0 0.0 0.0 15.0 0.0 0.0 0.0 15.0" Properties=species:S:1:pos:R:3 energy=1.1525738737 pbc="T T T"
O        0.00000000       0.00000000       0.00000000
H        0.95883000       0.00000000       0.00000000
H        0.34508000       1.08873000       0.00000000
3
Lattice="15.0 0.0 0.0 0.0 15.0 0.0 0.0 0.0 15.0" Properties=species:S:1:pos:R:3 energy=1.3101974027 pbc="T T T"
O        0.00000000       0.00000000       0.00000000
H        0.95883000       0.00000000       0.00000000
H        0.35621000       1.12385000       0.00000000
3
Lattice="15.0 0.0 0.0 0.0 15.0 0.0 0.0 0.0 15.0" Properties=species:S:1:pos:R:3 energy=1.4808540345 pbc="T T T"
O        0.00000000       0.00000000       0.00000000
H        0.95883000       0.00000000       0.00000000
H        0.36734000       1.15897000       0.00000000
3
Lattice="15.0 0.0 0.0 0.0 15.0 0.0 0.0 0.0 15.0" Properties=species:S:1:pos:R:3 energy=1.6602468001 pbc="T T T"
O        0.00000000       0.00000000       0.00000000
H        0.95883000       0.00000000       0.00000000
H        0.37847000       1.19409000       0.00000000
3
Lattice="15.0 0.0 0.0 0.0 15.0 0.0 0.0 0.0 15.0" Properties=species:S:1:pos:R:3 energy=1.8448732786 pbc="T T T"
O        0.00000000       0.00000000       0.00000000
H        0.95883000       0.00000000       0.00000000
H        0.38960000       1.22920000       0.00000000
3
Lattice="15.0 0.0 0.0 0.0 15.0 0.0 0.0 0.0 15.0" Properties=species:S:1:pos:R:3 energy=2.0320834781 pbc="T T T"
O        0.00000000       0.00000000       0.00000000
H        0.95883000       0.00000000       0.00000000
H        0.40073000       1.26433000       0.00000000
3
Lattice="15.0 0.0 0.0 0.0 15.0 0.0 0.0 0.0 15.0" Properties=species:S:1:pos:R:3 energy=2.2195420441 pbc="T T T"
O        0.00000000       0.00000000       0.00000000
H        0.95883000       0.00000000       0.00000000
H        0.41187000       1.29945000       0.00000000
3
Lattice="15.0 0.0 0.0 0.0 15.0 0.0 0.0 0.0 15.0" Properties=species:S:1:pos:R:3 energy=2.4054495666 pbc="T T T"
O        0.00000000       0.00000000       0.00000000
H        0.95883000       0.00000000       0.00000000
H        0.42300000       1.33457000       0.00000000
3
Lattice="15.0 0.0 0.0 0.0 15.0 0.0 0.0 0.0 15.0" Properties=species:S:1:pos:R:3 energy=4.3877409268 pbc="T T T"
O        0.00000000       0.00000000       0.00000000
H        0.95883000       0.00000000       0.00000000
H        0.17506000       0.67776000       0.00000000
3
Lattice="15.0 0.0 0.0 0.0 15.0 0.0 0.0 0.0 15.0" Properties=species:S:1:pos:R:3 energy=3.1821375666 pbc="T T T"
O        0.00000000       0.00000000       0.00000000
H        0.95883000       0.00000000       0.00000000
H        0.18428000       0.71343000       0.00000000
3
Lattice="15.0 0.0 0.0 0.0 15.0 0.0 0.0 0.0 15.0" Properties=species:S:1:pos:R:3 energy=2.2926889899 pbc="T T T"
O        0.00000000       0.00000000       0.00000000
H        0.95883000       0.00000000       0.00000000
H        0.19349000       0.74909000       0.00000000
3
Lattice="15.0 0.0 0.0 0.0 15.0 0.0 0.0 0.0 15.0" Properties=species:S:1:pos:R:3 energy=1.6499679031 pbc="T T T"
O        0.00000000       0.00000000       0.00000000
H        0.95883000       0.00000000       0.00000000
H        0.20270000       0.78477000       0.00000000
3
Lattice="15.0 0.0 0.0 0.0 15.0 0.0 0.0 0.0 15.0" Properties=species:S:1:pos:R:3 energy=1.2011486522 pbc="T T T"
O        0.00000000       0.00000000       0.00000000
H        0.95883000       0.00000000       0.00000000
H        0.21192000       0.82044000       0.00000000
3
Lattice="15.0 0.0 0.0 0.0 15.0 0.0 0.0 0.0 15.0" Properties=species:S:1:pos:R:3 energy=0.9042071182 pbc="T T T"
O        0.00000000       0.00000000       0.00000000
H        0.95883000       0.00000000       0.00000000
H        0.22113000       0.85611000       0.00000000
3
Lattice="15.0 0.0 0.0 0.0 15.0 0.0 0.0 0.0 15.0" Properties=species:S:1:pos:R:3 energy=0.7263189544 pbc="T T T"
O        0.00000000       0.00000000       0.00000000
H        0.95883000       0.00000000       0.00000000
H        0.23034000       0.89178000       0.00000000
3
Lattice="15.0 0.0 0.0 0.0 15.0 0.0 0.0 0.0 15.0" Properties=species:S:1:pos:R:3 energy=0.6416310367 pbc="T T T"
O        0.00000000       0.00000000       0.00000000
H        0.95883000       0.00000000       0.00000000
H        0.23956000       0.92745000       0.00000000
3
Lattice="15.0 0.0 0.0 0.0 15.0 0.0 0.0 0.0 15.0" Properties=species:S:1:pos:R:3 energy=0.6296226956 pbc="T T T"
O        0.00000000       0.00000000       0.00000000