       3
Lattice="15.0 0.0 0.0 0.0 15.0 0.0 0.0 0.0 15.0" Properties=species:S:1:pos:R:3:forces:R:3 energy=        1.4402485648 pbc="T T T"
       O     0.0126061000    -0.0109249400     0.0000000000     -9.716302523      5.300151435     -0.000000000
       H     0.8735508100    -0.0547105800     0.0000000000      7.343276749      0.420931438     -0.000000000
       H    -0.3523062300     1.1570448900     0.0000000000      2.373025723     -5.721082873     -0.000000000
