       3
Lattice="15.0 0.0 0.0 0.0 15.0 0.0 0.0 0.0 15.0" Properties=species:S:1:pos:R:3:forces:R:3 energy=        1.8117473046 pbc="T T T"
       O     0.0286912800     0.0218904600     0.0000000000    -18.131819477      5.232893350     -0.000000000
       H     0.7617113800    -0.2694991500     0.0000000000     15.590596477     -4.119619913     -0.000000000
       H    -0.4957564000     0.8510295500     0.0000000000      2.541223000     -1.113273436     -0.000000000
