       3
Lattice="15.0 0.0 0.0 0.0 15.0 0.0 0.0 0.0 15.0" Properties=species:S:1:pos:R:3:forces:R:3 energy=        0.8162110742 pbc="T T T"
       O     0.0069211500    -0.0094674900     0.0000000000     -4.021598256      4.854308926     -0.000000000
       H     0.9332728200    -0.0356173300     0.0000000000      1.983365856      0.513088201     -0.000000000
       H    -0.3218036400     1.1148210200     0.0000000000      2.038232400     -5.367397075     -0.000000000
