       3
Lattice="15.0 0.0 0.0 0.0 15.0 0.0 0.0 0.0 15.0" Properties=species:S:1:pos:R:3:forces:R:3 energy=        2.0318868187 pbc="T T T"
       O    -0.0196233900    -0.0024244300     0.0000000000      5.419136746    -15.652262668     -0.000000000
       H     1.0413742200     0.1853816000     0.0000000000     -2.675340032     -2.692510792     -0.000000000
       H    -0.0086183600     0.7820424800     0.0000000000     -2.743796714     18.344773460     -0.000000000
