       3
Lattice="15.0 0.0 0.0 0.0 15.0 0.0 0.0 0.0 15.0" Properties=species:S:1:pos:R:3:forces:R:3 energy=        1.2366989947 pbc="T T T"
       O    -0.0080883100    -0.0071563100     0.0000000000     -2.368596275     -7.052068583     -0.000000000
       H     0.8647013000     0.1953240900     0.0000000000      6.050407302     -2.127540482     -0.000000000
       H    -0.0150151600     0.8471976700     0.0000000000     -3.681811026      9.179609065     -0.000000000
