       3
Lattice="15.0 0.0 0.0 0.0 15.0 0.0 0.0 0.0 15.0" Properties=species:S:1:pos:R:3:forces:R:3 energy=        0.9058989807 pbc="T T T"
       O     0.0077856100    -0.0037545100     0.0000000000     -1.591770153      3.924258816     -0.000000000
       H     0.9884200000    -0.1070954800     0.0000000000     -1.241081389      1.217465333     -0.000000000
       H    -0.3906723000     1.0956304900     0.0000000000      2.832851542     -5.141724148     -0.000000000
