       3
Lattice="15.0 0.0 0.0 0.0 15.0 0.0 0.0 0.0 15.0" Properties=species:S:1:pos:R:3:forces:R:3 energy=        1.0375361911 pbc="T T T"
       O     0.0110910300     0.0007714100     0.0000000000     -2.045510631      3.316536953     -0.000000000
       H     0.9868535700    -0.1608761500     0.0000000000     -1.329914331      1.644063845     -0.000000000
       H    -0.4415667000     1.0775818400     0.0000000000      3.375424962     -4.960600798     -0.000000000
