       3
Lattice="15.0 0.0 0.0 0.0 15.0 0.0 0.0 0.0 15.0" Properties=species:S:1:pos:R:3:forces:R:3 energy=        1.3253407975 pbc="T T T"
       O    -0.0171276000     0.0045342200     0.0000000000      7.255453532     -6.709677081     -0.000000000
       H     1.2058806700     0.0049538100     0.0000000000     -5.992351714      0.168826889     -0.000000000
       H    -0.2127395300     0.8520330400     0.0000000000     -1.263101818      6.540850192     -0.000000000
