       3
Lattice="15.0 0.0 0.0 0.0 15.0 0.0 0.0 0.0 15.0" Properties=species:S:1:pos:R:3:forces:R:3 energy=        5.2207423432 pbc="T T T"
       O     0.0014454200     0.0283346900     0.0000000000     23.839750740    -45.395332199     -0.000000000
       H     1.0012445100    -0.1400300900     0.0000000000     -3.145623921      1.621867501     -0.000000000
       H    -0.3028747800     0.6192859400     0.0000000000    -20.694126819     43.773464647     -0.000000000
