       3
Lattice="15.0 0.0 0.0 0.0 15.0 0.0 0.0 0.0 15.0" Properties=species:S:1:pos:R:3:forces:R:3 energy=        1.4543048267 pbc="T T T"
       O     0.0119923600     0.0224793400     0.0000000000      1.440781894    -14.862397138     -0.000000000
       H     0.8784734100    -0.1562257300     0.0000000000      4.401363948      0.352454547     -0.000000000
       H    -0.3474915300     0.7284099200     0.0000000000     -5.842145842     14.509942591     -0.000000000
