       3
Lattice="15.0 0.0 0.0 0.0 15.0 0.0 0.0 0.0 15.0" Properties=species:S:1:pos:R:3:forces:R:3 energy=        1.8424694519 pbc="T T T"
       O    -0.0288441400    -0.0152094800     0.0000000000      5.919659548      4.027558230     -0.000000000
       H     1.2914133900     0.1451423000     0.0000000000     -5.623209002     -1.101575323     -0.000000000
       H    -0.1123183700     1.0251913500     0.0000000000     -0.296450546     -2.925982908     -0.000000000
