       3
Lattice="15.0 0.0 0.0 0.0 15.0 0.0 0.0 0.0 15.0" Properties=species:S:1:pos:R:3:forces:R:3 energy=        1.8396365752 pbc="T T T"
       O    -0.0006326900    -0.0308127900     0.0000000000     -1.011802540      6.087825047     -0.000000000
       H     0.9500448900     0.1117109400     0.0000000000      0.357125421     -0.343300387     -0.000000000
       H    -0.2186866300     1.3062576300     0.0000000000      0.654677119     -5.744524660     -0.000000000
