       3
Lattice="15.0 0.0 0.0 0.0 15.0 0.0 0.0 0.0 15.0" Properties=species:S:1:pos:R:3:forces:R:3 energy=        1.1289786850 pbc="T T T"
       O    -0.0214896500    -0.0189891300     0.0000000000      5.718968088      5.187781781     -0.000000000
       H     1.1358983400     0.1871762000     0.0000000000     -4.766454753     -1.872226630     -0.000000000
       H    -0.0735233500     1.0431422900     0.0000000000     -0.952513284     -3.315555151     -0.000000000
