       3
Lattice="15.0 0.0 0.0 0.0 15.0 0.0 0.0 0.0 15.0" Properties=species:S:1:pos:R:3:forces:R:3 energy=        1.6059980531 pbc="T T T"
       O     0.0207124200     0.0095565700     0.0000000000     -3.966139638      2.584056519     -0.000000000
       H     0.9517378800    -0.2798637800     0.0000000000     -0.475718741      2.179184764     -0.000000000
       H    -0.5591525500     1.0571430000     0.0000000000      4.441858379     -4.763241283     -0.000000000
