       3
Lattice="15.0 0.0 0.0 0.0 15.0 0.0 0.0 0.0 15.0" Properties=species:S:1:pos:R:3:forces:R:3 energy=        0.9877786616 pbc="T T T"
       O     0.0128802100     0.0160431900     0.0000000000     -0.132200942      0.119059205     -0.000000000
       H     1.0251567800    -0.2607903900     0.0000000000     -3.417009901      2.703687074     -0.000000000
       H    -0.5082682400     0.9351223900     0.0000000000      3.549210843     -2.822746279     -0.000000000
