       3
Lattice="15.0 0.0 0.0 0.0 15.0 0.0 0.0 0.0 15.0" Properties=species:S:1:pos:R:3:forces:R:3 energy=        2.8102145306 pbc="T T T"
       O    -0.0069384800     0.0217911200     0.0000000000     14.089954491    -23.902329518     -0.000000000
       H     1.1430931100    -0.1262369500     0.0000000000     -5.921469400      1.748696480     -0.000000000
       H    -0.3116642300     0.7093445500     0.0000000000     -8.168485091     22.153633038     -0.000000000
