       3
Lattice="15.0 0.0 0.0 0.0 15.0 0.0 0.0 0.0 15.0" Properties=species:S:1:pos:R:3:forces:R:3 energy=        0.2217255950 pbc="T T T"
       O     0.0026639300     0.0088794200     0.0000000000      2.049285372     -1.842307099     -0.000000000
       H     1.0186227600    -0.1072384100     0.0000000000     -2.917177595      1.280034752     -0.000000000
       H    -0.3395905400     0.8952637200     0.0000000000      0.867892223      0.562272348     -0.000000000
