       3
Lattice="15.0 0.0 0.0 0.0 15.0 0.0 0.0 0.0 15.0" Properties=species:S:1:pos:R:3:forces:R:3 energy=        2.4490545147 pbc="T T T"
       O     0.0013386400    -0.0259883400     0.0000000000    -15.850493169      1.357290628     -0.000000000
       H     0.7457363000     0.2308649500     0.0000000000     18.106708118      2.555901435     -0.000000000
       H    -0.0456614900     1.1105345600     0.0000000000     -2.256214949     -3.913192062     -0.000000000
