       3
Lattice="15.0 0.0 0.0 0.0 15.0 0.0 0.0 0.0 15.0" Properties=species:S:1:pos:R:3:forces:R:3 energy=        0.7280013882 pbc="T T T"
       O     0.0096227600    -0.0057432500     0.0000000000     -7.705420812      4.486165706     -0.000000000
       H     0.8863610300    -0.0442189000     0.0000000000      5.752419133      0.331996732     -0.000000000
       H    -0.3177686500     1.0643159000     0.0000000000      1.953001679     -4.818162438     -0.000000000
