       3
Lattice="15.0 0.0 0.0 0.0 15.0 0.0 0.0 0.0 15.0" Properties=species:S:1:pos:R:3:forces:R:3 energy=        2.6726400705 pbc="T T T"
       O     0.0105174300    -0.0086461600     0.0000000000    -28.287607917      0.911907113     -0.000000000
       H     0.7368667400     0.0699880100     0.0000000000     28.836786709      1.674838164     -0.000000000
       H    -0.1824704700     0.9961790300     0.0000000000     -0.549178793     -2.586745277     -0.000000000
