       3
Lattice="15.0 0.0 0.0 0.0 15.0 0.0 0.0 0.0 15.0" Properties=species:S:1:pos:R:3:forces:R:3 energy=        1.0752840625 pbc="T T T"
       O    -0.0091018100    -0.0212029500     0.0000000000      3.054281273      6.296485028     -0.000000000
       H     1.0468401900     0.1106401400     0.0000000000     -3.426568908     -0.893187005     -0.000000000
       H    -0.1810709700     1.1548135800     0.0000000000      0.372287635     -5.403298023     -0.000000000
