       3
Lattice="15.0 0.0 0.0 0.0 15.0 0.0 0.0 0.0 15.0" Properties=species:S:1:pos:R:3:forces:R:3 energy=        2.3356926725 pbc="T T T"
       O     0.0001500800    -0.0268715600     0.0000000000    -14.046857794      1.721190548     -0.000000000
       H     0.7516452800     0.2437072300     0.0000000000     16.470011413      2.092077754     -0.000000000
       H    -0.0327069000     1.1117095300     0.0000000000     -2.423153619     -3.813268353     -0.000000000
