       3
Lattice="15.0 0.0 0.0 0.0 15.0 0.0 0.0 0.0 15.0" Properties=species:S:1:pos:R:3:forces:R:3 energy=        1.5628965129 pbc="T T T"
       O    -0.0002978800     0.0219537600     0.0000000000      9.627580499    -14.849777489     -0.000000000
       H     1.0873295200    -0.1652864800     0.0000000000     -5.122075717      2.111249605     -0.000000000
       H    -0.3612928700     0.7458128400     0.0000000000     -4.505504782     12.738527884     -0.000000000
