       3
Lattice="15.0 0.0 0.0 0.0 15.0 0.0 0.0 0.0 15.0" Properties=species:S:1:pos:R:3:forces:R:3 energy=        0.4419709424 pbc="T T T"
       O    -0.0058636600    -0.0013728200     0.0000000000      3.551194553      1.648172418     -0.000000000
       H     1.0890472100    -0.0245260000     0.0000000000     -4.584956998      0.493296919     -0.000000000
       H    -0.2746736000     0.9752617000     0.0000000000      1.033762445     -2.141469337     -0.000000000
