       3
Lattice="15.0 0.0 0.0 0.0 15.0 0.0 0.0 0.0 15.0" Properties=species:S:1:pos:R:3:forces:R:3 energy=        3.4584951783 pbc="T T T"
       O    -0.0016682400     0.0256266200     0.0000000000     17.648183380    -31.332264363     -0.000000000
       H     1.0676460100    -0.1446865200     0.0000000000     -4.895222550      1.891872284     -0.000000000
       H    -0.3198602000     0.6669216800     0.0000000000    -12.752960881     29.440392079     -0.000000000
