       3
Lattice="15.0 0.0 0.0 0.0 15.0 0.0 0.0 0.0 15.0" Properties=species:S:1:pos:R:3:forces:R:3 energy=        1.3248170627 pbc="T T T"
       O    -0.0059691400    -0.0044822200     0.0000000000     -3.445157324     -9.023562210     -0.000000000
       H     0.8558352800     0.1676660600     0.0000000000      7.164835884     -1.757958626     -0.000000000
       H    -0.0397827500     0.8324161300     0.0000000000     -3.719678560     10.781520888     -0.000000000
