       3
Lattice="15.0 0.0 0.0 0.0 15.0 0.0 0.0 0.0 15.0" Properties=species:S:1:pos:R:3:forces:R:3 energy=        1.4581910589 pbc="T T T"
       O     0.0061346600     0.0001267300     0.0000000000    -15.422274913     -4.499612376     -0.000000000
       H     0.7900972700     0.0550232800     0.0000000000     17.587315569     -0.153497965     -0.000000000
       H    -0.1661437600     0.8719117800     0.0000000000     -2.165040657      4.653110290     -0.000000000
