       3
Lattice="15.0 0.0 0.0 0.0 15.0 0.0 0.0 0.0 15.0" Properties=species:S:1:pos:R:3:forces:R:3 energy=        0.9948036019 pbc="T T T"
       O    -0.0200681300    -0.0207522500     0.0000000000      4.479387864      3.637989535     -0.000000000
       H     0.9982608000     0.2820918100     0.0000000000     -1.580217564     -3.287041347     -0.000000000
       H     0.0415561700     0.9762077300     0.0000000000     -2.899170300     -0.350948137     -0.000000000
