       3
Lattice="15.0 0.0 0.0 0.0 15.0 0.0 0.0 0.0 15.0" Properties=species:S:1:pos:R:3:forces:R:3 energy=        2.4504706034 pbc="T T T"
       O     0.0067567800    -0.0253810100     0.0000000000    -17.110225298      3.436437115     -0.000000000
       H     0.7785101700     0.1367284200     0.0000000000     17.291822143      2.113903704     -0.000000000
       H    -0.1644276200     1.1950329000     0.0000000000     -0.181596845     -5.550340819     -0.000000000
