       3
Lattice="15.0 0.0 0.0 0.0 15.0 0.0 0.0 0.0 15.0" Properties=species:S:1:pos:R:3:forces:R:3 energy=        1.0569106843 pbc="T T T"
       O    -0.0069232400     0.0118025100     0.0000000000      7.654630959    -11.067705013     -0.000000000
       H     1.0991541200    -0.0608312200     0.0000000000     -5.067556889      0.886323647     -0.000000000
       H    -0.2679653300     0.8024648900     0.0000000000     -2.587074018     10.181381366     -0.000000000
