       3
Lattice="15.0 0.0 0.0 0.0 15.0 0.0 0.0 0.0 15.0" Properties=species:S:1:pos:R:3:forces:R:3 energy=        1.4269595144 pbc="T T T"
       O     0.0026624400     0.0067633300     0.0000000000     -4.838381037    -13.523708810     -0.000000000
       H     0.8486960900     0.0313998000     0.0000000000      9.015127959     -0.707064759     -0.000000000
       H    -0.1696365700     0.7902079000     0.0000000000     -4.176746922     14.230773518     -0.000000000
