       3
Lattice="15.0 0.0 0.0 0.0 15.0 0.0 0.0 0.0 15.0" Properties=species:S:1:pos:R:3:forces:R:3 energy=        5.1976620483 pbc="T T T"
       O     0.0255316300    -0.0016689400     0.0000000000    -47.522059235     10.536573831     -0.000000000
       H     0.6926836800    -0.1027227600     0.0000000000     44.666807357     -5.353731296     -0.000000000
       H    -0.3765781200     1.0581570800     0.0000000000      2.855251878     -5.182842535     -0.000000000
