       3
Lattice="15.0 0.0 0.0 0.0 15.0 0.0 0.0 0.0 15.0" Properties=species:S:1:pos:R:3:forces:R:3 energy=        0.4231807048 pbc="T T T"
       O    -0.0018169200    -0.0080309500     0.0000000000      1.165746488      4.122367653     -0.000000000
       H     1.0153546200     0.0038056300     0.0000000000     -2.426021943      0.173508459     -0.000000000
       H    -0.2652049600     1.0525991300     0.0000000000      1.260275455     -4.295876112     -0.000000000
