       3
Lattice="15.0 0.0 0.0 0.0 15.0 0.0 0.0 0.0 15.0" Properties=species:S:1:pos:R:3:forces:R:3 energy=        2.0070154377 pbc="T T T"
       O    -0.0041020400    -0.0375442200     0.0000000000     -2.260761073      6.120442642     -0.000000000
       H     0.8831057500     0.2276575900     0.0000000000      2.977859052     -0.749147310     -0.000000000
       H    -0.0966833500     1.2971428000     0.0000000000     -0.717097979     -5.371295333     -0.000000000
