       3
Lattice="15.0 0.0 0.0 0.0 15.0 0.0 0.0 0.0 15.0" Properties=species:S:1:pos:R:3:forces:R:3 energy=        0.3124347448 pbc="T T T"
       O     0.0116167600     0.0136210600     0.0000000000     -3.589714685     -2.738307149     -0.000000000
       H     0.9013268500    -0.1414307700     0.0000000000      3.210625965      0.671911591     -0.000000000
       H    -0.3643834000     0.8542024600     0.0000000000      0.379088720      2.066395558     -0.000000000
