       3
Lattice="15.0 0.0 0.0 0.0 15.0 0.0 0.0 0.0 15.0" Properties=species:S:1:pos:R:3:forces:R:3 energy=        0.8427928105 pbc="T T T"
       O     0.0123090400     0.0054233800     0.0000000000    -13.517807972      0.337352137     -0.000000000
       H     0.8208741100    -0.0616582500     0.0000000000     13.121453669     -0.562369124     -0.000000000
       H    -0.2949154800     0.9045324300     0.0000000000      0.396354303      0.225016987     -0.000000000
