       3
Lattice="15.0 0.0 0.0 0.0 15.0 0.0 0.0 0.0 15.0" Properties=species:S:1:pos:R:3:forces:R:3 energy=        2.9382267136 pbc="T T T"
       O     0.0118473000     0.0303709100     0.0000000000     12.392258438    -26.488327221     -0.000000000
       H     0.9056167400    -0.2003817000     0.0000000000      1.287139896      1.126647138     -0.000000000
       H    -0.3723339900     0.6473212400     0.0000000000    -13.679398333     25.361680082     -0.000000000
