       3
Lattice="15.0 0.0 0.0 0.0 15.0 0.0 0.0 0.0 15.0" Properties=species:S:1:pos:R:3:forces:R:3 energy=        1.4566379010 pbc="T T T"
       O     0.0144985700    -0.0071922700     0.0000000000     -7.262500106      4.862838154     -0.000000000
       H     0.9045174800    -0.1138413700     0.0000000000      4.238055934      0.750094607     -0.000000000
       H    -0.4133094800     1.1569360300     0.0000000000      3.024444172     -5.612932761     -0.000000000
