       3
Lattice="15.0 0.0 0.0 0.0 15.0 0.0 0.0 0.0 15.0" Properties=species:S:1:pos:R:3:forces:R:3 energy=        3.5582560678 pbc="T T T"
       O     0.0217235900    -0.0034507500     0.0000000000    -34.606611190      7.616580362     -0.000000000
       H     0.7337731300    -0.0820849500     0.0000000000     32.051146432     -2.451159579     -0.000000000
       H    -0.3572306400     1.0657979100     0.0000000000      2.555464758     -5.165420783     -0.000000000
