       3
Lattice="15.0 0.0 0.0 0.0 15.0 0.0 0.0 0.0 15.0" Properties=species:S:1:pos:R:3:forces:R:3 energy=        1.9366886256 pbc="T T T"
       O    -0.0080727900    -0.0379419200     0.0000000000      0.777923521      6.880129989     -0.000000000
       H     0.9353685700     0.2372630100     0.0000000000     -0.039405208     -1.498140867     -0.000000000
       H    -0.0859271500     1.2938493600     0.0000000000     -0.738518313     -5.381989121     -0.000000000
