       3
Lattice="15.0 0.0 0.0 0.0 15.0 0.0 0.0 0.0 15.0" Properties=species:S:1:pos:R:3:forces:R:3 energy=        1.2854364074 pbc="T T T"
       O    -0.0058617200     0.0074689900     0.0000000000      3.842856417      0.035334327     -0.000000000
       H     1.1992698800    -0.1380008100     0.0000000000     -5.930203287      1.775877321     -0.000000000
       H    -0.3849301500     0.9484115700     0.0000000000      2.087346819     -1.811211649     -0.000000000
