3
Lattice="15.0 0.0 0.0 0.0 15.0 0.0 0.0 0.0 15.0" Properties=species:S:1:pos:R:3 energy=-0.086/ 0.031/ -0.102 pbc="T T T"
O        0.00427816      -0.00044562       0.00000000
H        0.93322359      -0.03143460       0.00000000
H       -0.27980819       0.96745446       0.00000000
