3
Lattice="15.0 0.0 0.0 0.0 15.0 0.0 0.0 0.0 15.0" Properties=species:S:1:pos:R:3 energy=0.227/ -0.189/ -0.113 pbc="T T T"
O        0.00115314      -0.00506761       0.00000000
H        0.85044374       0.08592237       0.00000000
H       -0.14742901       0.92345090       0.00000000
