3
Lattice="15.0 0.0 0.0 0.0 15.0 0.0 0.0 0.0 15.0" Properties=species:S:1:pos:R:3 energy=-0.176/ 0.207/ -0.292 pbc="T T T"
O        0.00886324      -0.00561842       0.00000000
H        0.92885809      -0.06825174       0.00000000
H       -0.34821206       1.08636804       0.00000000
