3
Lattice="15.0 0.0 0.0 0.0 15.0 0.0 0.0 0.0 15.0" Properties=species:S:1:pos:R:3 energy=0.196/ 0.198/ 0.143 pbc="T T T"
O       -0.01148872      -0.00647545       0.00000000
H        1.08306560       0.06552041       0.00000000
H       -0.17941579       0.96619737       0.00000000
