3
Lattice="15.0 0.0 0.0 0.0 15.0 0.0 0.0 0.0 15.0" Properties=species:S:1:pos:R:3 energy=-0.135/ 0.06/ 0.001 pbc="T T T"
O        0.00201468       0.00263249       0.00000000
H        0.98042112      -0.04988855       0.00000000
H       -0.29108319       0.93705683       0.00000000
