3
Lattice="15.0 0.0 0.0 0.0 15.0 0.0 0.0 0.0 15.0" Properties=species:S:1:pos:R:3 energy=0.183/ 0.2/ -0.237 pbc="T T T"
O       -0.00051871      -0.01445330       0.00000000
H        0.94758089       0.06067119       0.00000000
H       -0.21803309       1.09766047       0.00000000
