3
Lattice="15.0 0.0 0.0 0.0 15.0 0.0 0.0 0.0 15.0" Properties=species:S:1:pos:R:3 energy=0.337/ 0.223/ 0.3 pbc="T T T"
O       -0.01942938      -0.00756201       0.00000000
H        1.14913703       0.11549876       0.00000000
H       -0.11946188       0.93346334       0.00000000
