3
Lattice="15.0 0.0 0.0 0.0 15.0 0.0 0.0 0.0 15.0" Properties=species:S:1:pos:R:3 energy=0.364/ 0.24/ -0.268 pbc="T T T"
O       -0.00424760      -0.02109626       0.00000000
H        0.95136386       0.12462021       0.00000000
H       -0.16263425       1.13913983       0.00000000
