3
Lattice="15.0 0.0 0.0 0.0 15.0 0.0 0.0 0.0 15.0" Properties=species:S:1:pos:R:3 energy=-0.369/ -0.0/ -0.1 pbc="T T T"
O        0.01098253       0.00830861       0.00000000
H        0.92142736      -0.13248368       0.00000000
H       -0.37441800       0.92956795       0.00000000
