3
Lattice="15.0 0.0 0.0 0.0 15.0 0.0 0.0 0.0 15.0" Properties=species:S:1:pos:R:3 energy=0.12/ -0.159/ -0.289 pbc="T T T"
O        0.00802668      -0.00648239       0.00000000
H        0.79749669       0.04678550       0.00000000
H       -0.20357095       0.98504134       0.00000000
