3
Lattice="15.0 0.0 0.0 0.0 15.0 0.0 0.0 0.0 15.0" Properties=species:S:1:pos:R:3 energy=-0.133/ -0.165/ 0.075 pbc="T T T"
O        0.00342223       0.00879692       0.00000000
H        0.92514744      -0.04373787       0.00000000
H       -0.25814825       0.83307179       0.00000000
