3
Lattice="15.0 0.0 0.0 0.0 15.0 0.0 0.0 0.0 15.0" Properties=species:S:1:pos:R:3 energy=-0.354/ 0.03/ -0.226 pbc="T T T"
O        0.01369535       0.00449006       0.00000000
H        0.88758198      -0.12760254       0.00000000
H       -0.38362685       0.98528986       0.00000000
