3
Lattice="15.0 0.0 0.0 0.0 15.0 0.0 0.0 0.0 15.0" Properties=species:S:1:pos:R:3 energy=-0.355/ -0.086/ -0.171 pbc="T T T"
O        0.01401899       0.00809043       0.00000000
H        0.86476832      -0.12522033       0.00000000
H       -0.36594947       0.92576707       0.00000000
