3
Lattice="15.0 0.0 0.0 0.0 15.0 0.0 0.0 0.0 15.0" Properties=species:S:1:pos:R:3 energy=0.123/ 0.031/ 0.104 pbc="T T T"
O       -0.00612119      -0.00185339       0.00000000
H        1.00762908       0.04338515       0.00000000
H       -0.18916655       0.91497686       0.00000000
