3
Lattice="15.0 0.0 0.0 0.0 15.0 0.0 0.0 0.0 15.0" Properties=species:S:1:pos:R:3 energy=-0.19/ 0.041/ -0.167 pbc="T T T"
O        0.00826292       0.00090135       0.00000000
H        0.91319696      -0.06923596       0.00000000
H       -0.32302368       0.98387861       0.00000000
