3
Lattice="15.0 0.0 0.0 0.0 15.0 0.0 0.0 0.0 15.0" Properties=species:S:1:pos:R:3 energy=0.323/ 0.298/ 0.178 pbc="T T T"
O       -0.01684179      -0.01134137       0.00000000
H        1.13241581       0.10850232       0.00000000
H       -0.14380786       1.00044102       0.00000000
