3
Lattice="15.0 0.0 0.0 0.0 15.0 0.0 0.0 0.0 15.0" Properties=species:S:1:pos:R:3 energy=0.347/ 0.068/ -0.002 pbc="T T T"
O       -0.00866782      -0.01127924       0.00000000
H        0.98407512       0.12276074       0.00000000
H       -0.12519350       0.98519602       0.00000000
