3
Lattice="15.0 0.0 0.0 0.0 15.0 0.0 0.0 0.0 15.0" Properties=species:S:1:pos:R:3 energy=0.12/ -0.2/ -0.233 pbc="T T T"
O        0.00708636      -0.00444970       0.00000000
H        0.80266502       0.04795573       0.00000000
H       -0.19381569       0.95161087       0.00000000
