3
Lattice="15.0 0.0 0.0 0.0 15.0 0.0 0.0 0.0 15.0" Properties=species:S:1:pos:R:3 energy=-0.302/ 0.111/ 0.259 pbc="T T T"
O       -0.00239699       0.01201041       0.00000000
H        1.09107137      -0.11099140       0.00000000
H       -0.33171882       0.84932585       0.00000000
