3
Lattice="15.0 0.0 0.0 0.0 15.0 0.0 0.0 0.0 15.0" Properties=species:S:1:pos:R:3 energy=-0.03/ 0.1/ -0.255 pbc="T T T"
O        0.00629201      -0.00676918       0.00000000
H        0.90341414      -0.01318014       0.00000000
H       -0.28195946       1.04955933       0.00000000
