3
Lattice="15.0 0.0 0.0 0.0 15.0 0.0 0.0 0.0 15.0" Properties=species:S:1:pos:R:3 energy=0.366/ 0.119/ -0.087 pbc="T T T"
O       -0.00747960      -0.01472929       0.00000000
H        0.97202785       0.12834313       0.00000000
H       -0.13200396       1.03436833       0.00000000
