3
Lattice="15.0 0.0 0.0 0.0 15.0 0.0 0.0 0.0 15.0" Properties=species:S:1:pos:R:3 energy=0.155/ 0.15/ 0.06 pbc="T T T"
O       -0.00748800      -0.00613479       0.00000000
H        1.03564683       0.05196385       0.00000000
H       -0.19549180       0.97434725       0.00000000
