3
Lattice="15.0 0.0 0.0 0.0 15.0 0.0 0.0 0.0 15.0" Properties=species:S:1:pos:R:3 energy=0.099/ 0.16/ 0.037 pbc="T T T"
O       -0.00574636      -0.00527007       0.00000000
H        1.03052056       0.03175582       0.00000000
H       -0.21800716       0.98083159       0.00000000
