3
Lattice="15.0 0.0 0.0 0.0 15.0 0.0 0.0 0.0 15.0" Properties=species:S:1:pos:R:3 energy=-0.137/ -0.006/ -0.179 pbc="T T T"
O        0.00814596       0.00008857       0.00000000
H        0.89207303      -0.04883019       0.00000000
H       -0.30004289       0.97637205       0.00000000
