3
Lattice="15.0 0.0 0.0 0.0 15.0 0.0 0.0 0.0 15.0" Properties=species:S:1:pos:R:3 energy=0.057/ -0.091/ 0.183 pbc="T T T"
O       -0.00499480       0.00424606       0.00000000
H        0.99175494       0.02261092       0.00000000
H       -0.19116965       0.83894839       0.00000000
