3
Lattice="15.0 0.0 0.0 0.0 15.0 0.0 0.0 0.0 15.0" Properties=species:S:1:pos:R:3 energy=-0.133/ -0.096/ -0.186 pbc="T T T"
O        0.00969646       0.00164875       0.00000000
H        0.85660970      -0.04531658       0.00000000
H       -0.28918708       0.94809701       0.00000000
