3
Lattice="15.0 0.0 0.0 0.0 15.0 0.0 0.0 0.0 15.0" Properties=species:S:1:pos:R:3 energy=-0.276/ 0.219/ 0.016 pbc="T T T"
O        0.00215418       0.00371917       0.00000000
H        1.04367647      -0.10415109       0.00000000
H       -0.35655386       0.97407345       0.00000000
