3
Lattice="15.0 0.0 0.0 0.0 15.0 0.0 0.0 0.0 15.0" Properties=species:S:1:pos:R:3 energy=-0.086/ 0.263/ -0.168 pbc="T T T"
O        0.00247423      -0.00658177       0.00000000
H        0.99420337      -0.03722035       0.00000000
H       -0.31215838       1.07062565       0.00000000
