3
Lattice="15.0 0.0 0.0 0.0 15.0 0.0 0.0 0.0 15.0" Properties=species:S:1:pos:R:3 energy=0.253/ -0.095/ 0.09 pbc="T T T"
O       -0.00662673      -0.00326735       0.00000000
H        0.95743697       0.09304613       0.00000000
H       -0.13094989       0.88775606       0.00000000
