3
Lattice="15.0 0.0 0.0 0.0 15.0 0.0 0.0 0.0 15.0" Properties=species:S:1:pos:R:3 energy=0.046/ -0.045/ 0.012 pbc="T T T"
O       -0.00063347      -0.00013706       0.00000000
H        0.94679438       0.01758592       0.00000000
H       -0.21542669       0.91353660       0.00000000
