3
Lattice="15.0 0.0 0.0 0.0 15.0 0.0 0.0 0.0 15.0" Properties=species:S:1:pos:R:3 energy=0.302/ 0.066/ 0.13 pbc="T T T"
O       -0.01136772      -0.00709081       0.00000000
H        1.03054400       0.10675234       0.00000000
H       -0.12881361       0.93473116       0.00000000
