3
Lattice="15.0 0.0 0.0 0.0 15.0 0.0 0.0 0.0 15.0" Properties=species:S:1:pos:R:3 energy=0.383/ 0.019/ -0.256 pbc="T T T"
O       -0.00150323      -0.01687532       0.00000000
H        0.87505346       0.13675538       0.00000000
H       -0.12987863       1.06001473       0.00000000
