3
Lattice="15.0 0.0 0.0 0.0 15.0 0.0 0.0 0.0 15.0" Properties=species:S:1:pos:R:3 energy=-0.091/ -0.087/ 0.248 pbc="T T T"
O       -0.00363428       0.00979061       0.00000000
H        1.01603327      -0.03047962       0.00000000
H       -0.23704190       0.80404321       0.00000000
