3
Lattice="15.0 0.0 0.0 0.0 15.0 0.0 0.0 0.0 15.0" Properties=species:S:1:pos:R:3 energy=-0.259/ 0.105/ 0.137 pbc="T T T"
O        0.00019598       0.00822330       0.00000000
H        1.04525349      -0.09543529       0.00000000
H       -0.32705272       0.89387382       0.00000000
