3
Lattice="15.0 0.0 0.0 0.0 15.0 0.0 0.0 0.0 15.0" Properties=species:S:1:pos:R:3 energy=-0.289/ -0.174/ 0.242 pbc="T T T"
O        0.00230378       0.01706781       0.00000000
H        0.98100986      -0.09939410       0.00000000
H       -0.29626173       0.75746340       0.00000000
