3
Lattice="15.0 0.0 0.0 0.0 15.0 0.0 0.0 0.0 15.0" Properties=species:S:1:pos:R:3 energy=0.273/ 0.243/ 0.181 pbc="T T T"
O       -0.01497409      -0.00872588       0.00000000
H        1.11350401       0.09192891       0.00000000
H       -0.15453827       0.97550478       0.00000000
