3
Lattice="15.0 0.0 0.0 0.0 15.0 0.0 0.0 0.0 15.0" Properties=species:S:1:pos:R:3 energy=0.366/ 0.039/ -0.098 pbc="T T T"
O       -0.00594236      -0.01334248       0.00000000
H        0.93926497       0.13046943       0.00000000
H       -0.12363829       1.01023219       0.00000000
