3
Lattice="15.0 0.0 0.0 0.0 15.0 0.0 0.0 0.0 15.0" Properties=species:S:1:pos:R:3 energy=-0.22/ 0.109/ -0.023 pbc="T T T"
O        0.00377073       0.00353431       0.00000000
H        0.98969999      -0.08157701       0.00000000
H       -0.32823271       0.95443296       0.00000000
