3
Lattice="15.0 0.0 0.0 0.0 15.0 0.0 0.0 0.0 15.0" Properties=species:S:1:pos:R:3 energy=0.141/ -0.082/ 0.074 pbc="T T T"
O       -0.00391164      -0.00071590       0.00000000
H        0.95597545       0.05268067       0.00000000
H       -0.17257991       0.88762826       0.00000000
