3
Lattice="15.0 0.0 0.0 0.0 15.0 0.0 0.0 0.0 15.0" Properties=species:S:1:pos:R:3 energy=0.248/ -0.1/ -0.231 pbc="T T T"
O        0.00262398      -0.01005165       0.00000000
H        0.84046440       0.09124954       0.00000000
H       -0.16079277       0.99722404       0.00000000
