3
Lattice="15.0 0.0 0.0 0.0 15.0 0.0 0.0 0.0 15.0" Properties=species:S:1:pos:R:3 energy=0.258/ -0.193/ -0.185 pbc="T T T"
O        0.00257619      -0.00748027       0.00000000
H        0.82286497       0.09740246       0.00000000
H       -0.14243479       0.95026121       0.00000000
