3
Lattice="15.0 0.0 0.0 0.0 15.0 0.0 0.0 0.0 15.0" Properties=species:S:1:pos:R:3 energy=0.189/ 0.133/ 0.066 pbc="T T T"
O       -0.00813421      -0.00666049       0.00000000
H        1.03164732       0.06468990       0.00000000
H       -0.18123616       0.96996436       0.00000000
