3
Lattice="15.0 0.0 0.0 0.0 15.0 0.0 0.0 0.0 15.0" Properties=species:S:1:pos:R:3 energy=0.228/ -0.049/ -0.064 pbc="T T T"
O       -0.00244882      -0.00689157       0.00000000
H        0.91889991       0.08290238       0.00000000
H       -0.15871945       0.95541866       0.00000000
