3
Lattice="15.0 0.0 0.0 0.0 15.0 0.0 0.0 0.0 15.0" Properties=species:S:1:pos:R:3 energy=-0.376/ -0.079/ 0.069 pbc="T T T"
O        0.00761906       0.01380924       0.00000000
H        0.95329096      -0.13310750       0.00000000
H       -0.35290096       0.84289274       0.00000000
