3
Lattice="15.0 0.0 0.0 0.0 15.0 0.0 0.0 0.0 15.0" Properties=species:S:1:pos:R:3 energy=-0.393/ 0.142/ 0.206 pbc="T T T"
O        0.00061788       0.01282153       0.00000000
H        1.08315551      -0.14455553       0.00000000
H       -0.37165193       0.87001718       0.00000000
