3
Lattice="15.0 0.0 0.0 0.0 15.0 0.0 0.0 0.0 15.0" Properties=species:S:1:pos:R:3 energy=-0.354/ 0.078/ 0.294 pbc="T T T"
O       -0.00170952       0.01492276       0.00000000
H        1.09131893      -0.12883272       0.00000000
H       -0.34287747       0.82094614       0.00000000
