3
Lattice="15.0 0.0 0.0 0.0 15.0 0.0 0.0 0.0 15.0" Properties=species:S:1:pos:R:3 energy=-0.182/ 0.228/ -0.296 pbc="T T T"
O        0.00874802      -0.00594782       0.00000000
H        0.93531515      -0.07080799       0.00000000
H       -0.35284067       1.09415215       0.00000000
