3
Lattice="15.0 0.0 0.0 0.0 15.0 0.0 0.0 0.0 15.0" Properties=species:S:1:pos:R:3 energy=-0.376/ 0.049/ -0.265 pbc="T T T"
O        0.01499077       0.00386378       0.00000000
H        0.88028921      -0.13593086       0.00000000
H       -0.39689351       1.00355773       0.00000000
