3
Lattice="15.0 0.0 0.0 0.0 15.0 0.0 0.0 0.0 15.0" Properties=species:S:1:pos:R:3 energy=0.017/ 0.087/ -0.061 pbc="T T T"
O       -0.00001069      -0.00357672       0.00000000
H        0.96855457       0.00385186       0.00000000
H       -0.24707106       0.98186075       0.00000000
