3
Lattice="15.0 0.0 0.0 0.0 15.0 0.0 0.0 0.0 15.0" Properties=species:S:1:pos:R:3 energy=0.066/ 0.293/ -0.277 pbc="T T T"
O        0.00173472      -0.01391428       0.00000000
H        0.96642903       0.01656546       0.00000000
H       -0.27264592       1.13321182       0.00000000
