 3
 energy=3.4444158414396329 cutoff=3.89000000 nneightol=1.20000000 pbc="T T T" Lattice="15.00000000       0.00000000       0.00000000       0.00000000      15.00000000       0.00000000       0.00000000       0.00000000      15.00000000" Properties=species:S:1:pos:R:3:Z:I:1:map_shift:I:3:n_neighb:I:1
 O               0.00000000      0.00000000      0.00000000       8       0       0       0       2
 H               0.70000000      0.00000000      0.00000000       1       0       0       0       2
 H              -0.17340000      0.67818000      0.00000000       1       0       0       0       2
 3
 energy=2.9182901012057951 cutoff=3.89000000 nneightol=1.20000000 pbc="T T T" Lattice="15.00000000       0.00000000       0.00000000       0.00000000      15.00000000       0.00000000       0.00000000       0.00000000      15.00000000" Properties=species:S:1:pos:R:3:Z:I:1:map_shift:I:3:n_neighb:I:1
 O               0.00000000      0.00000000      0.00000000       8       0       0       0       2
 H               0.70000000      0.00000000      0.00000000       1       0       0       0       2
 H              -0.17938000      0.70157000      0.00000000       1       0       0       0       2
 3
 energy=2.5137234516786022 cutoff=3.89000000 nneightol=1.20000000 pbc="T T T" Lattice="15.00000000       0.00000000       0.00000000       0.00000000      15.00000000       0.00000000       0.00000000       0.00000000      15.00000000" Properties=species:S:1:pos:R:3:Z:I:1:map_shift:I:3:n_neighb:I:1
 O               0.00000000      0.00000000      0.00000000       8       0       0       0       2
 H               0.70000000      0.00000000      0.00000000       1       0       0       0       2
 H              -0.18536000      0.72496000      0.00000000       1       0       0       0       2
 3
 energy=2.2117572889845882 cutoff=3.89000000 nneightol=1.20000000 pbc="T T T" Lattice="15.00000000       0.00000000       0.00000000       0.00000000      15.00000000       0.00000000       0.00000000       0.00000000      15.00000000" Properties=species:S:1:pos:R:3:Z:I:1:map_shift:I:3:n_neighb:I:1
 O               0.00000000      0.00000000      0.00000000       8       0       0       0       2
 H               0.70000000      0.00000000      0.00000000       1       0       0       0       2
 H              -0.19134000      0.74834000      0.00000000       1       0       0       0       2
 3
 energy=1.9944383443831071 cutoff=3.89000000 nneightol=1.20000000 pbc="T T T" Lattice="15.00000000       0.00000000       0.00000000       0.00000000      15.00000000       0.00000000       0.00000000       0.00000000      15.00000000" Properties=species:S:1:pos:R:3:Z:I:1:map_shift:I:3:n_neighb:I:1
 O               0.00000000      0.00000000      0.00000000       8       0       0       0       2
 H               0.70000000      0.00000000      0.00000000       1       0       0       0       2
 H              -0.19732000      0.77172000      0.00000000       1       0       0       0       2
 3
 energy=1.8455152532969139 cutoff=3.89000000 nneightol=1.20000000 pbc="T T T" Lattice="15.00000000       0.00000000       0.00000000       0.00000000      15.00000000       0.00000000       0.00000000       0.00000000      15.00000000" Properties=species:S:1:pos:R:3:Z:I:1:map_shift:I:3:n_neighb:I:1
 O               0.00000000      0.00000000      0.00000000       8       0       0       0       2
 H               0.70000000      0.00000000      0.00000000       1       0       0       0       2
 H              -0.20330000      0.79511000      0.00000000       1       0       0       0       2
 3
 energy=1.7505842609327229 cutoff=3.89000000 nneightol=1.20000000 pbc="T T T" Lattice="15.00000000       0.00000000       0.00000000       0.00000000      15.00000000       0.00000000       0.00000000       0.00000000      15.00000000" Properties=species:S:1:pos:R:3:Z:I:1:map_shift:I:3:n_neighb:I:1
 O               0.00000000      0.00000000      0.00000000       8       0       0       0       2
 H               0.70000000      0.00000000      0.00000000       1       0       0       0       2
 H              -0.20928000      0.81850000      0.00000000       1       0       0       0       2
 3
 energy=1.6968901320373098 cutoff=3.89000000 nneightol=1.20000000 pbc="T T T" Lattice="15.00000000       0.00000000       0.00000000       0.00000000      15.00000000       0.00000000       0.00000000       0.00000000      15.00000000" Properties=species:S:1:pos:R:3:Z:I:1:map_shift:I:3:n_neighb:I:1
 O               0.00000000      0.00000000      0.00000000       8       0       0       0       2
 H               0.70000000      0.00000000      0.00000000       1       0       0       0       2
 H              -0.21526000      0.84189000      0.00000000       1       0       0       0       2
 3
 energy=1.6733702955197005 cutoff=3.89000000 nneightol=1.20000000 pbc="T T T" Lattice="15.00000000       0.00000000       0.00000000       0.00000000      15.00000000       0.00000000       0.00000000       0.00000000      15.00000000" Properties=species:S:1:pos:R:3:Z:I:1:map_shift:I:3:n_neighb:I:1
 O               0.00000000      0.00000000      0.00000000       8       0       0       0       2
 H               0.70000000      0.00000000      0.00000000       1       0       0       0       2
 H              -0.22124000      0.86526000      0.00000000       1       0       0       0       2
 3
 energy=1.6704742863487816 cutoff=3.89000000 nneightol=1.20000000 pbc="T T T" Lattice="15.00000000       0.00000000       0.00000000       0.00000000      15.00000000       0.00000000       0.00000000       0.00000000      15.00000000" Properties=species:S:1:pos:R:3:Z:I:1:map_shift:I:3:n_neighb:I:1
 O               0.00000000      0.00000000      0.00000000       8       0       0       0       2
 H               0.70000000      0.00000000      0.00000000       1       0       0       0       2
 H              -0.22722000      0.88865000      0.00000000       1       0       0       0       2
 3
 energy=1.6800814086165694 cutoff=3.89000000 nneightol=1.20000000 pbc="T T T" Lattice="15.00000000       0.00000000       0.00000000       0.00000000      15.00000000       0.00000000       0.00000000       0.00000000      15.00000000" Properties=species:S:1:pos:R:3:Z:I:1:map_shift:I:3:n_neighb:I:1
 O               0.00000000      0.00000000      0.00000000       8       0       0       0       2
 H               0.70000000      0.00000000      0.00000000       1       0       0       0       2
 H              -0.23319000      0.91204000      0.00000000       1       0       0       0       2
 3
 energy=1.6952292276643535 cutoff=3.89000000 nneightol=1.20000000 pbc="T T T" Lattice="15.00000000       0.00000000       0.00000000       0.00000000      15.00000000       0.00000000       0.00000000       0.00000000      15.00000000" Properties=species:S:1:pos:R:3:Z:I:1:map_shift:I:3:n_neighb:I:1
 O               0.00000000      0.00000000      0.00000000       8       0       0       0       2
 H               0.70000000      0.00000000      0.00000000       1       0       0       0       2
 H              -0.23917000      0.93543000      0.00000000       1       0       0       0       2
 3
 energy=1.7099635250373528 cutoff=3.89000000 nneightol=1.20000000 pbc="T T T" Lattice="15.00000000       0.00000000       0.00000000       0.00000000      15.00000000       0.00000000       0.00000000       0.00000000      15.00000000" Properties=species:S:1:pos:R:3:Z:I:1:map_shift:I:3:n_neighb:I:1
 O               0.00000000      0.00000000      0.00000000       8       0       0       0       2
 H               0.70000000      0.00000000      0.00000000       1       0       0       0       2
 H              -0.24515000      0.95881000      0.00000000       1       0       0       0       2
 3
 energy=1.7192114801223850 cutoff=3.89000000 nneightol=1.20000000 pbc="T T T" Lattice="15.00000000       0.00000000       0.00000000       0.00000000      15.00000000       0.00000000       0.00000000       0.00000000      15.00000000" Properties=species:S:1:pos:R:3:Z:I:1:map_shift:I:3:n_neighb:I:1
 O               0.00000000      0.00000000      0.00000000       8       0       0       0       2
 H               0.70000000      0.00000000      0.00000000       1       0       0       0       2
 H              -0.25113000      0.98219000      0.00000000       1       0       0       0       2
 3
 energy=1.7186441088819131 cutoff=3.89000000 nneightol=1.20000000 pbc="T T T" Lattice="15.00000000       0.00000000       0.00000000       0.00000000      15.00000000       0.00000000       0.00000000       0.00000000      15.00000000" Properties=species:S:1:pos:R:3:Z:I:1:map_shift:I:3:n_neighb:I:1
 O               0.00000000      0.00000000      0.00000000       8       0       0       0       2
 H               0.70000000      0.00000000      0.00000000       1       0       0       0       2
 H              -0.25711000      1.00558000      0.00000000       1       0       0       0       2
 3
 energy=1.7045946291164737 cutoff=3.89000000 nneightol=1.20000000 pbc="T T T" Lattice="15.00000000       0.00000000       0.00000000       0.00000000      15.00000000       0.00000000       0.00000000       0.00000000      15.00000000" Properties=species:S:1:pos:R:3:Z:I:1:map_shift:I:3:n_neighb:I:1
 O               0.00000000      0.00000000      0.00000000       8       0       0       0       2
 H               0.70000000      0.00000000      0.00000000       1       0       0       0       2
 H              -0.26309000      1.02897000      0.00000000       1       0       0       0       2
 3
 energy=1.6740043488575820 cutoff=3.89000000 nneightol=1.20000000 pbc="T T T" Lattice="15.00000000       0.00000000       0.00000000       0.00000000      15.00000000       0.00000000       0.00000000       0.00000000      15.00000000" Properties=species:S:1:pos:R:3:Z:I:1:map_shift:I:3:n_neighb:I:1
 O               0.00000000      0.00000000      0.00000000       8       0       0       0       2
 H               0.70000000      0.00000000      0.00000000       1       0       0       0       2
 H              -0.26907000      1.05236000      0.00000000       1       0       0       0       2
 3
 energy=1.6244029281489389 cutoff=3.89000000 nneightol=1.20000000 pbc="T T T" Lattice="15.00000000       0.00000000       0.00000000       0.00000000      15.00000000       0.00000000       0.00000000       0.00000000      15.00000000" Properties=species:S:1:pos:R:3:Z:I:1:map_shift:I:3:n_neighb:I:1
 O               0.00000000      0.00000000      0.00000000       8       0       0       0       2
 H               0.70000000      0.00000000      0.00000000       1       0       0       0       2
 H              -0.27505000      1.07573000      0.00000000       1       0       0       0       2
 3
 energy=1.5536603622506027 cutoff=3.89000000 nneightol=1.20000000 pbc="T T T" Lattice="15.00000000       0.00000000       0.00000000       0.00000000      15.00000000       0.00000000       0.00000000       0.00000000      15.00000000" Properties=species:S:1:pos:R:3:Z:I:1:map_shift:I:3:n_neighb:I:1
 O               0.00000000      0.00000000      0.00000000       8       0       0       0       2
 H               0.70000000      0.00000000      0.00000000       1       0       0       0       2
 H              -0.28103000      1.09912000      0.00000000       1       0       0       0       2
 3
 energy=1.4601465996737257 cutoff=3.89000000 nneightol=1.20000000 pbc="T T T" Lattice="15.00000000       0.00000000       0.00000000       0.00000000      15.00000000       0.00000000       0.00000000       0.00000000      15.00000000" Properties=species:S:1:pos:R:3:Z:I:1:map_shift:I:3:n_neighb:I:1
 O               0.00000000      0.00000000      0.00000000       8       0       0       0       2
 H               0.70000000      0.00000000      0.00000000       1       0       0       0       2
 H              -0.28701000      1.12251000      0.00000000       1       0       0       0       2
 3
 energy=1.3424970946558825 cutoff=3.89000000 nneightol=1.20000000 pbc="T T T" Lattice="15.00000000       0.00000000       0.00000000       0.00000000      15.00000000       0.00000000       0.00000000       0.00000000      15.00000000" Properties=species:S:1:pos:R:3:Z:I:1:map_shift:I:3:n_neighb:I:1
 O               0.00000000      0.00000000      0.00000000       8       0       0       0       2
 H               0.70000000      0.00000000      0.00000000       1       0       0       0       2
 H              -0.29299000      1.14590000      0.00000000       1       0       0       0       2
 3
 energy=1.1996194621626968 cutoff=3.89000000 nneightol=1.20000000 pbc="T T T" Lattice="15.00000000       0.00000000       0.00000000       0.00000000      15.00000000       0.00000000       0.00000000       0.00000000      15.00000000" Properties=species:S:1:pos:R:3:Z:I:1:map_shift:I:3:n_neighb:I:1
 O               0.00000000      0.00000000      0.00000000       8       0       0       0       2
 H               0.70000000      0.00000000      0.00000000       1       0       0       0       2
 H              -0.29897000      1.16928000      0.00000000       1       0       0       0       2
 3
 energy=1.0304496576161739 cutoff=3.89000000 nneightol=1.20000000 pbc="T T T" Lattice="15.00000000       0.00000000       0.00000000       0.00000000      15.00000000       0.00000000       0.00000000       0.00000000      15.00000000" Properties=species:S:1:pos:R:3:Z:I:1:map_shift:I:3:n_neighb:I:1
 O               0.00000000      0.00000000      0.00000000       8       0       0       0       2
 H               0.70000000      0.00000000      0.00000000       1       0       0       0       2
 H              -0.30495000      1.19266000      0.00000000       1       0       0       0       2
 3
 energy=.83396501553181235 cutoff=3.89000000 nneightol=1.20000000 pbc="T T T" Lattice="15.00000000       0.00000000       0.00000000       0.00000000      15.00000000       0.00000000       0.00000000       0.00000000      15.00000000" Properties=species:S:1:pos:R:3:Z:I:1:map_shift:I:3:n_neighb:I:1
 O               0.00000000      0.00000000      0.00000000       8       0       0       0       2
 H               0.70000000      0.00000000      0.00000000       1       0       0       0       2
 H              -0.31093000      1.21605000      0.00000000       1       0       0       0       2
 3
 energy=.60936176129955433 cutoff=3.89000000 nneightol=1.20000000 pbc="T T T" Lattice="15.00000000       0.00000000       0.00000000       0.00000000      15.00000000       0.00000000       0.00000000       0.00000000      15.00000000" Properties=species:S:1:pos:R:3:Z:I:1:map_shift:I:3:n_neighb:I:1
 O               0.00000000      0.00000000      0.00000000       8       0       0       0       2
 H               0.70000000      0.00000000      0.00000000       1       0       0       0       2
 H              -0.31691000      1.23944000      0.00000000       1       0       0       0       2
 3
 energy=.35598450535761561 cutoff=3.89000000 nneightol=1.20000000 pbc="T T T" Lattice="15.00000000       0.00000000       0.00000000       0.00000000      15.00000000       0.00000000       0.00000000       0.00000000      15.00000000" Properties=species:S:1:pos:R:3:Z:I:1:map_shift:I:3:n_neighb:I:1
 O               0.00000000      0.00000000      0.00000000       8       0       0       0       2
 H               0.70000000      0.00000000      0.00000000       1       0       0       0       2
 H              -0.32289000      1.26282000      0.00000000       1       0       0       0       2
 3
 energy=.73043773305625059E-001 cutoff=3.89000000 nneightol=1.20000000 pbc="T T T" Lattice="15.00000000       0.00000000       0.00000000       0.00000000      15.00000000       0.00000000       0.00000000       0.00000000      15.00000000" Properties=species:S:1:pos:R:3:Z:I:1:map_shift:I:3:n_neighb:I:1
 O               0.00000000      0.00000000      0.00000000       8       0       0       0       2
 H               0.70000000      0.00000000      0.00000000       1       0       0       0       2
 H              -0.32887000      1.28621000      0.00000000       1       0       0       0       2
 3
 energy=-.23949369859308356 cutoff=3.89000000 nneightol=1.20000000 pbc="T T T" Lattice="15.00000000       0.00000000       0.00000000       0.00000000      15.00000000       0.00000000       0.00000000       0.00000000      15.00000000" Properties=species:S:1:pos:R:3:Z:I:1:map_shift:I:3:n_neighb:I:1
 O               0.00000000      0.00000000      0.00000000       8       0       0       0       2
 H               0.70000000      0.00000000      0.00000000       1       0       0       0       2
 H              -0.33484000      1.30959000      0.00000000       1       0       0       0       2
 3
 energy=-.58180238447790633 cutoff=3.89000000 nneightol=1.20000000 pbc="T T T" Lattice="15.00000000       0.00000000       0.00000000       0.00000000      15.00000000       0.00000000       0.00000000       0.00000000      15.00000000" Properties=species:S:1:pos:R:3:Z:I:1:map_shift:I:3:n_neighb:I:1
 O               0.00000000      0.00000000      0.00000000       8       0       0       0       2
 H               0.70000000      0.00000000      0.00000000       1       0       0       0       2
 H              -0.34082000      1.33298000      0.00000000       1       0       0       0       2
 3
 energy=-.95302141711815747 cutoff=3.89000000 nneightol=1.20000000 pbc="T T T" Lattice="15.00000000       0.00000000       0.00000000       0.00000000      15.00000000       0.00000000       0.00000000       0.00000000      15.00000000" Properties=species:S:1:pos:R:3:Z:I:1:map_shift:I:3:n_neighb:I:1
 O               0.00000000      0.00000000      0.00000000       8       0       0       0       2
 H               0.70000000      0.00000000      0.00000000       1       0       0       0       2
 H              -0.34680000      1.35637000      0.00000000       1       0       0       0       2
 3
 energy=2.9183506505888577 cutoff=3.89000000 nneightol=1.20000000 pbc="T T T" Lattice="15.00000000       0.00000000       0.00000000       0.00000000      15.00000000       0.00000000       0.00000000       0.00000000      15.00000000" Properties=species:S:1:pos:R:3:Z:I:1:map_shift:I:3:n_neighb:I:1
 O               0.00000000      0.00000000      0.00000000       8       0       0       0       2
 H               0.72414000      0.00000000      0.00000000       1       0       0       0       2
 H              -0.17340000      0.67818000      0.00000000       1       0       0       0       2
 3
 energy=2.3976428865418948 cutoff=3.89000000 nneightol=1.20000000 pbc="T T T" Lattice="15.00000000       0.00000000       0.00000000       0.00000000      15.00000000       0.00000000       0.00000000       0.00000000      15.00000000" Properties=species:S:1:pos:R:3:Z:I:1:map_shift:I:3:n_neighb:I:1
 O               0.00000000      0.00000000      0.00000000       8       0       0       0       2
 H               0.72414000      0.00000000      0.00000000       1       0       0       0       2
 H              -0.17938000      0.70157000      0.00000000       1       0       0       0       2
 3
 energy=1.9988358483754243 cutoff=3.89000000 nneightol=1.20000000 pbc="T T T" Lattice="15.00000000       0.00000000       0.00000000       0.00000000      15.00000000       0.00000000       0.00000000       0.00000000      15.00000000" Properties=species:S:1:pos:R:3:Z:I:1:map_shift:I:3:n_neighb:I:1
 O               0.00000000      0.00000000      0.00000000       8       0       0       0       2
 H               0.72414000      0.00000000      0.00000000       1       0       0       0       2
 H              -0.18536000      0.72496000      0.00000000       1       0       0       0       2
 3
 energy=1.7023452620388189 cutoff=3.89000000 nneightol=1.20000000 pbc="T T T" Lattice="15.00000000       0.00000000       0.00000000       0.00000000      15.00000000       0.00000000       0.00000000       0.00000000      15.00000000" Properties=species:S:1:pos:R:3:Z:I:1:map_shift:I:3:n_neighb:I:1
 O               0.00000000      0.00000000      0.00000000       8       0       0       0       2
 H               0.72414000      0.00000000      0.00000000       1       0       0       0       2
 H              -0.19134000      0.74834000      0.00000000       1       0       0       0       2
 3
 energy=1.4897931795753001 cutoff=3.89000000 nneightol=1.20000000 pbc="T T T" Lattice="15.00000000       0.00000000       0.00000000       0.00000000      15.00000000       0.00000000       0.00000000       0.00000000      15.00000000" Properties=species:S:1:pos:R:3:Z:I:1:map_shift:I:3:n_neighb:I:1
 O               0.00000000      0.00000000      0.00000000       8       0       0       0       2
 H               0.72414000      0.00000000      0.00000000       1       0       0       0       2
 H              -0.19732000      0.77172000      0.00000000       1       0       0       0       2
 3
 energy=1.3446775907412425 cutoff=3.89000000 nneightol=1.20000000 pbc="T T T" Lattice="15.00000000       0.00000000       0.00000000       0.00000000      15.00000000       0.00000000       0.00000000       0.00000000      15.00000000" Properties=species:S:1:pos:R:3:Z:I:1:map_shift:I:3:n_neighb:I:1
 O               0.00000000      0.00000000      0.00000000       8       0       0       0       2
 H               0.72414000      0.00000000      0.00000000       1       0       0       0       2
 H              -0.20330000      0.79511000      0.00000000       1       0       0       0       2
 3
 energy=1.2524888748577778 cutoff=3.89000000 nneightol=1.20000000 pbc="T T T" Lattice="15.00000000       0.00000000       0.00000000       0.00000000      15.00000000       0.00000000       0.00000000       0.00000000      15.00000000" Properties=species:S:1:pos:R:3:Z:I:1:map_shift:I:3:n_neighb:I:1
 O               0.00000000      0.00000000      0.00000000       8       0       0       0       2
 H               0.72414000      0.00000000      0.00000000       1       0       0       0       2
 H              -0.20928000      0.81850000      0.00000000       1       0       0       0       2
 3
 energy=1.2004855620069543 cutoff=3.89000000 nneightol=1.20000000 pbc="T T T" Lattice="15.00000000       0.00000000       0.00000000       0.00000000      15.00000000       0.00000000       0.00000000       0.00000000      15.00000000" Properties=species:S:1:pos:R:3:Z:I:1:map_shift:I:3:n_neighb:I:1
 O               0.00000000      0.00000000      0.00000000       8       0       0       0       2
 H               0.72414000      0.00000000      0.00000000       1       0       0       0       2
 H              -0.21526000      0.84189000      0.00000000       1       0       0       0       2
 3
 energy=1.1777047357844153 cutoff=3.89000000 nneightol=1.20000000 pbc="T T T" Lattice="15.00000000       0.00000000       0.00000000       0.00000000      15.00000000       0.00000000       0.00000000       0.00000000      15.00000000" Properties=species:S:1:pos:R:3:Z:I:1:map_shift:I:3:n_neighb:I:1
 O               0.00000000      0.00000000      0.00000000       8       0       0       0       2
 H               0.72414000      0.00000000      0.00000000       1       0       0       0       2
 H              -0.22124000      0.86526000      0.00000000       1       0       0       0       2
 3
 energy=1.1747514205919338 cutoff=3.89000000 nneightol=1.20000000 pbc="T T T" Lattice="15.00000000       0.00000000       0.00000000       0.00000000      15.00000000       0.00000000       0.00000000       0.00000000      15.00000000" Properties=species:S:1:pos:R:3:Z:I:1:map_shift:I:3:n_neighb:I:1
 O               0.00000000      0.00000000      0.00000000       8       0       0       0       2
 H               0.72414000      0.00000000      0.00000000       1       0       0       0       2
 H              -0.22722000      0.88865000      0.00000000       1       0       0       0       2
 3
 energy=1.1836856222638228 cutoff=3.89000000 nneightol=1.20000000 pbc="T T T" Lattice="15.00000000       0.00000000       0.00000000       0.00000000      15.00000000       0.00000000       0.00000000       0.00000000      15.00000000" Properties=species:S:1:pos:R:3:Z:I:1:map_shift:I:3:n_neighb:I:1
 O               0.00000000      0.00000000      0.00000000       8       0       0       0       2
 H               0.72414000      0.00000000      0.00000000       1       0       0       0       2
 H              -0.23319000      0.91204000      0.00000000       1       0       0       0       2
 3
 energy=1.1977294170545412 cutoff=3.89000000 nneightol=1.20000000 pbc="T T T" Lattice="15.00000000       0.00000000       0.00000000       0.00000000      15.00000000       0.00000000       0.00000000       0.00000000      15.00000000" Properties=species:S:1:pos:R:3:Z:I:1:map_shift:I:3:n_neighb:I:1
 O               0.00000000      0.00000000      0.00000000       8       0       0       0       2
 H               0.72414000      0.00000000      0.00000000       1       0       0       0       2
 H              -0.23917000      0.93543000      0.00000000       1       0       0       0       2
 3
 energy=1.2110970941658272 cutoff=3.89000000 nneightol=1.20000000 pbc="T T T" Lattice="15.00000000       0.00000000       0.00000000       0.00000000      15.00000000       0.00000000       0.00000000       0.00000000      15.00000000" Properties=species:S:1:pos:R:3:Z:I:1:map_shift:I:3:n_neighb:I:1
 O               0.00000000      0.00000000      0.00000000       8       0       0       0       2
 H               0.72414000      0.00000000      0.00000000       1       0       0       0       2
 H              -0.24515000      0.95881000      0.00000000       1       0       0       0       2
 3
 energy=1.2188543646467080 cutoff=3.89000000 nneightol=1.20000000 pbc="T T T" Lattice="15.00000000       0.00000000       0.00000000       0.00000000      15.00000000       0.00000000       0.00000000       0.00000000      15.00000000" Properties=species:S:1:pos:R:3:Z:I:1:map_shift:I:3:n_neighb:I:1
 O               0.00000000      0.00000000      0.00000000       8       0       0       0       2
 H               0.72414000      0.00000000      0.00000000       1       0       0       0       2
 H              -0.25113000      0.98219000      0.00000000       1       0       0       0       2
 3
 energy=1.2167744956264643 cutoff=3.89000000 nneightol=1.20000000 pbc="T T T" Lattice="15.00000000       0.00000000       0.00000000       0.00000000      15.00000000       0.00000000       0.00000000       0.00000000      15.00000000" Properties=species:S:1:pos:R:3:Z:I:1:map_shift:I:3:n_neighb:I:1
 O               0.00000000      0.00000000      0.00000000       8       0       0       0       2
 H               0.72414000      0.00000000      0.00000000       1       0       0       0       2
 H              -0.25711000      1.00558000      0.00000000       1       0       0       0       2
 3
 energy=1.2012560555069867 cutoff=3.89000000 nneightol=1.20000000 pbc="T T T" Lattice="15.00000000       0.00000000       0.00000000       0.00000000      15.00000000       0.00000000       0.00000000       0.00000000      15.00000000" Properties=species:S:1:pos:R:3:Z:I:1:map_shift:I:3:n_neighb:I:1
 O               0.00000000      0.00000000      0.00000000       8       0       0       0       2
 H               0.72414000      0.00000000      0.00000000       1       0       0       0       2
 H              -0.26309000      1.02897000      0.00000000       1       0       0       0       2
 3
 energy=1.1692687978969236 cutoff=3.89000000 nneightol=1.20000000 pbc="T T T" Lattice="15.00000000       0.00000000       0.00000000       0.00000000      15.00000000       0.00000000       0.00000000       0.00000000      15.00000000" Properties=species:S:1:pos:R:3:Z:I:1:map_shift:I:3:n_neighb:I:1
 O               0.00000000      0.00000000      0.00000000       8       0       0       0       2
 H               0.72414000      0.00000000      0.00000000       1       0       0       0       2
 H              -0.26907000      1.05236000      0.00000000       1       0       0       0       2
 3
 energy=1.1183401331541503 cutoff=3.89000000 nneightol=1.20000000 pbc="T T T" Lattice="15.00000000       0.00000000       0.00000000       0.00000000      15.00000000       0.00000000       0.00000000       0.00000000      15.00000000" Properties=species:S:1:pos:R:3:Z:I:1:map_shift:I:3:n_neighb:I:1
 O               0.00000000      0.00000000      0.00000000       8       0       0       0       2
 H               0.72414000      0.00000000      0.00000000       1       0       0       0       2
 H              -0.27505000      1.07573000      0.00000000       1       0       0       0       2
 3
 energy=1.0463093137723278 cutoff=3.89000000 nneightol=1.20000000 pbc="T T T" Lattice="15.00000000       0.00000000       0.00000000       0.00000000      15.00000000       0.00000000       0.00000000       0.00000000      15.00000000" Properties=species:S:1:pos:R:3:Z:I:1:map_shift:I:3:n_neighb:I:1
 O               0.00000000      0.00000000      0.00000000       8       0       0       0       2
 H               0.72414000      0.00000000      0.00000000       1       0       0       0       2
 H              -0.28103000      1.09912000      0.00000000       1       0       0       0       2
 3
 energy=.95149998220926491 cutoff=3.89000000 nneightol=1.20000000 pbc="T T T" Lattice="15.00000000       0.00000000       0.00000000       0.00000000      15.00000000       0.00000000       0.00000000       0.00000000      15.00000000" Properties=species:S:1:pos:R:3:Z:I:1:map_shift:I:3:n_neighb:I:1
 O               0.00000000      0.00000000      0.00000000       8       0       0       0       2