       3
Lattice="15.0 0.0 0.0 0.0 15.0 0.0 0.0 0.0 15.0" Properties=species:S:1:pos:R:3:forces:R:3 energy=        1.3700327316 pbc="T T T"
       O     0.0000000000     0.0000000000     0.0000000000      2.055396322      3.268465323     -0.000000000
       H     0.9588300000     0.0000000000     0.0000000000      1.836133569     -4.175215058     -0.000000000
       H     0.4666700000     0.9199900000     0.0000000000     -3.891529891      0.906749734     -0.000000000
