       3
Lattice="15.0 0.0 0.0 0.0 15.0 0.0 0.0 0.0 15.0" Properties=species:S:1:pos:R:3:forces:R:3 energy=        1.0748430340 pbc="T T T"
       O     0.0000000000     0.0000000000     0.0000000000      7.625622114    -12.330739109     -0.000000000
       H     0.9588300000     0.0000000000     0.0000000000     -0.801191039      1.265397609     -0.000000000
       H    -0.5020800000     0.6363000000     0.0000000000     -6.824431075     11.065341500     -0.000000000
