       3
Lattice="15.0 0.0 0.0 0.0 15.0 0.0 0.0 0.0 15.0" Properties=species:S:1:pos:R:3:forces:R:3 energy=        1.0021651118 pbc="T T T"
       O     0.0000000000     0.0000000000     0.0000000000     -3.698769877      3.448948314     -0.000000000
       H     0.9588300000     0.0000000000     0.0000000000     -0.089053337      1.266774898     -0.000000000
       H    -0.5709500000     1.0314800000     0.0000000000      3.787823265     -4.715723212     -0.000000000
