       3
Lattice="15.0 0.0 0.0 0.0 15.0 0.0 0.0 0.0 15.0" Properties=species:S:1:pos:R:3:forces:R:3 energy=        0.8069329957 pbc="T T T"
       O     0.0000000000     0.0000000000     0.0000000000     -0.375355579      5.864237439     -0.000000000
       H     0.9588300000     0.0000000000     0.0000000000      0.337385098     -0.435120180     -0.000000000
       H    -0.0850700000     1.1758800000     0.0000000000      0.037970481     -5.429117259     -0.000000000
