       3
Lattice="15.0 0.0 0.0 0.0 15.0 0.0 0.0 0.0 15.0" Properties=species:S:1:pos:R:3:forces:R:3 energy=        1.7214793330 pbc="T T T"
       O     0.0000000000     0.0000000000     0.0000000000      2.572138165      4.550311469     -0.000000000
       H     0.9588300000     0.0000000000     0.0000000000      1.844265355     -4.216283771     -0.000000000
       H     0.5526300000     0.9571800000     0.0000000000     -4.416403468     -0.334027699     -0.000000000
