       3
Lattice="15.0 0.0 0.0 0.0 15.0 0.0 0.0 0.0 15.0" Properties=species:S:1:pos:R:3:forces:R:3 energy=        1.2174803955 pbc="T T T"
       O     0.0000000000     0.0000000000     0.0000000000      8.681990942    -11.803374543     -0.000000000
       H     0.9588300000     0.0000000000     0.0000000000     -0.957285768      1.464832724     -0.000000000
       H    -0.5679300000     0.5782800000     0.0000000000     -7.724705226     10.338541818     -0.000000000
