       3
Lattice="15.0 0.0 0.0 0.0 15.0 0.0 0.0 0.0 15.0" Properties=species:S:1:pos:R:3:forces:R:3 energy=        2.5611792811 pbc="T T T"
       O     0.0000000000     0.0000000000     0.0000000000      2.558581194      5.813832635     -0.000000000
       H     0.9588300000     0.0000000000     0.0000000000      1.120107637     -2.592254640     -0.000000000
       H     0.6166700000     1.2157000000     0.0000000000     -3.678688831     -3.221577995     -0.000000000
