       3
Lattice="15.0 0.0 0.0 0.0 15.0 0.0 0.0 0.0 15.0" Properties=species:S:1:pos:R:3:forces:R:3 energy=        3.0037469120 pbc="T T T"
       O     0.0000000000     0.0000000000     0.0000000000     23.178161978    -16.180358507     -0.000000000
       H     0.9588300000     0.0000000000     0.0000000000     -1.461522068      1.455378002     -0.000000000
       H    -0.6381200000     0.3684200000     0.0000000000    -21.716639911     14.724980505     -0.000000000
