       3
Lattice="15.0 0.0 0.0 0.0 15.0 0.0 0.0 0.0 15.0" Properties=species:S:1:pos:R:3:forces:R:3 energy=        0.5922810739 pbc="T T T"
       O     0.0000000000     0.0000000000     0.0000000000      0.986962277      5.400734426     -0.000000000
       H     0.9588300000     0.0000000000     0.0000000000      0.602759425     -1.410366604     -0.000000000
       H     0.0996400000     1.1007600000     0.0000000000     -1.589721703     -3.990367771     -0.000000000
