       3
Lattice="15.0 0.0 0.0 0.0 15.0 0.0 0.0 0.0 15.0" Properties=species:S:1:pos:R:3:forces:R:3 energy=        3.1701892185 pbc="T T T"
       O     0.0000000000     0.0000000000     0.0000000000     -5.883054838      0.087436421     -0.000000000
       H     0.9588300000     0.0000000000     0.0000000000     -0.007486902      2.285208059     -0.000000000
       H    -1.1296400000     0.8269800000     0.0000000000      5.890541740     -2.372644531     -0.000000000
