       3
Lattice="15.0 0.0 0.0 0.0 15.0 0.0 0.0 0.0 15.0" Properties=species:S:1:pos:R:3:forces:R:3 energy=        1.5182369631 pbc="T T T"
       O     0.0000000000     0.0000000000     0.0000000000     -2.807701873      4.818773744     -0.000000000
       H     0.9588300000     0.0000000000     0.0000000000      0.148255843      0.818263738     -0.000000000
       H    -0.4337200000     1.2143400000     0.0000000000      2.659446030     -5.637037482     -0.000000000
