       3
Lattice="15.0 0.0 0.0 0.0 15.0 0.0 0.0 0.0 15.0" Properties=species:S:1:pos:R:3:forces:R:3 energy=        0.3834234794 pbc="T T T"
       O     0.0000000000     0.0000000000     0.0000000000      1.244925447      2.575329419     -0.000000000
       H     0.9588300000     0.0000000000     0.0000000000      0.809340874     -2.027147752     -0.000000000
       H     0.1431800000     0.9843800000     0.0000000000     -2.054266373     -0.548181667     -0.000000000
