       3
Lattice="15.0 0.0 0.0 0.0 15.0 0.0 0.0 0.0 15.0" Properties=species:S:1:pos:R:3:forces:R:3 energy=        0.9989870641 pbc="T T T"
       O     0.0000000000     0.0000000000     0.0000000000      6.051869900     -8.071891580     -0.000000000
       H     0.9588300000     0.0000000000     0.0000000000     -1.032566727      1.608997272     -0.000000000
       H    -0.6556300000     0.5368300000     0.0000000000     -5.019303173      6.462894307     -0.000000000
