       3
Lattice="15.0 0.0 0.0 0.0 15.0 0.0 0.0 0.0 15.0" Properties=species:S:1:pos:R:3:forces:R:3 energy=        3.4489277176 pbc="T T T"
       O     0.0000000000     0.0000000000     0.0000000000     14.328676904    -34.156805633     -0.000000000
       H     0.9588300000     0.0000000000     0.0000000000     -0.466625259      0.245089599     -0.000000000
       H    -0.2707900000     0.6455000000     0.0000000000    -13.862051645     33.911716086     -0.000000000
