       3
Lattice="15.0 0.0 0.0 0.0 15.0 0.0 0.0 0.0 15.0" Properties=species:S:1:pos:R:3:forces:R:3 energy=        1.1525738737 pbc="T T T"
       O     0.0000000000     0.0000000000     0.0000000000      2.206724480      5.758262945     -0.000000000
       H     0.9588300000     0.0000000000     0.0000000000      1.048013871     -2.535999904     -0.000000000
       H     0.3450800000     1.0887300000     0.0000000000     -3.254738403     -3.222263092     -0.000000000
