       3
Lattice="15.0 0.0 0.0 0.0 15.0 0.0 0.0 0.0 15.0" Properties=species:S:1:pos:R:3:forces:R:3 energy=        0.6140803302 pbc="T T T"
       O     0.0000000000     0.0000000000     0.0000000000     -0.272529916      5.546406361     -0.000000000
       H     0.9588300000     0.0000000000     0.0000000000      0.331761785     -0.503776381     -0.000000000
       H    -0.0824100000     1.1391300000     0.0000000000     -0.059231868     -5.042629980     -0.000000000
