       3
Lattice="15.0 0.0 0.0 0.0 15.0 0.0 0.0 0.0 15.0" Properties=species:S:1:pos:R:3:forces:R:3 energy=        0.6573315928 pbc="T T T"
       O     0.0000000000     0.0000000000     0.0000000000     -3.488093893      2.378442885     -0.000000000
       H     0.9588300000     0.0000000000     0.0000000000     -0.233250435      1.351983405     -0.000000000
       H    -0.5868300000     0.9366100000     0.0000000000      3.721344276     -3.730426291     -0.000000000
