       3
Lattice="15.0 0.0 0.0 0.0 15.0 0.0 0.0 0.0 15.0" Properties=species:S:1:pos:R:3:forces:R:3 energy=        2.4876893412 pbc="T T T"
       O     0.0000000000     0.0000000000     0.0000000000     16.158169825    -22.961373708     -0.000000000
       H     0.9588300000     0.0000000000     0.0000000000     -0.919451453      1.176761305     -0.000000000
       H    -0.4564300000     0.5784500000     0.0000000000    -15.238718321     21.784612403     -0.000000000
