       3
Lattice="15.0 0.0 0.0 0.0 15.0 0.0 0.0 0.0 15.0" Properties=species:S:1:pos:R:3:forces:R:3 energy=        0.5934038456 pbc="T T T"
       O     0.0000000000     0.0000000000     0.0000000000     -1.544768000      4.870513723     -0.000000000
       H     0.9588300000     0.0000000000     0.0000000000      0.130875435      0.226086721     -0.000000000
       H    -0.2656200000     1.1107900000     0.0000000000      1.413892565     -5.096600444     -0.000000000
