       3
Lattice="15.0 0.0 0.0 0.0 15.0 0.0 0.0 0.0 15.0" Properties=species:S:1:pos:R:3:forces:R:3 energy=        2.8169019981 pbc="T T T"
       O     0.0000000000     0.0000000000     0.0000000000     -6.206598293      0.027124226     -0.000000000
       H     0.9588300000     0.0000000000     0.0000000000     -0.198916575      2.227109276     -0.000000000
       H    -1.1110400000     0.7243700000     0.0000000000      6.405514868     -2.254233501     -0.000000000
