       3
Lattice="15.0 0.0 0.0 0.0 15.0 0.0 0.0 0.0 15.0" Properties=species:S:1:pos:R:3:forces:R:3 energy=        2.3197896011 pbc="T T T"
       O     0.0000000000     0.0000000000     0.0000000000      2.189942934      6.142095609     -0.000000000
       H     0.9588300000     0.0000000000     0.0000000000      0.900098956     -2.058759635     -0.000000000
       H     0.4816100000     1.2752500000     0.0000000000     -3.090041890     -4.083335974     -0.000000000
