       3
Lattice="15.0 0.0 0.0 0.0 15.0 0.0 0.0 0.0 15.0" Properties=species:S:1:pos:R:3:forces:R:3 energy=        0.4186555792 pbc="T T T"
       O     0.0000000000     0.0000000000     0.0000000000      0.594273187     -3.785381590     -0.000000000
       H     0.9588300000     0.0000000000     0.0000000000     -0.693163415      1.513748705     -0.000000000
       H    -0.6088500000     0.6911100000     0.0000000000      0.098890228      2.271632833     -0.000000000
