       3
Lattice="15.0 0.0 0.0 0.0 15.0 0.0 0.0 0.0 15.0" Properties=species:S:1:pos:R:3:forces:R:3 energy=        0.0180388931 pbc="T T T"
       O     0.0000000000     0.0000000000     0.0000000000     -0.268422680     -0.450633761     -0.000000000
       H     0.9588300000     0.0000000000     0.0000000000     -0.141070995      0.401699989     -0.000000000
       H    -0.3221900000     0.9020800000     0.0000000000      0.409493623      0.048933773     -0.000000000
