       3
Lattice="15.0 0.0 0.0 0.0 15.0 0.0 0.0 0.0 15.0" Properties=species:S:1:pos:R:3:forces:R:3 energy=        0.0775360688 pbc="T T T"
       O     0.0000000000     0.0000000000     0.0000000000      0.509969811     -2.688590527     -0.000000000
       H     0.9588300000     0.0000000000     0.0000000000     -0.254716379      0.563570961     -0.000000000
       H    -0.3563100000     0.8493400000     0.0000000000     -0.255253432      2.125019566     -0.000000000
