       3
Lattice="15.0 0.0 0.0 0.0 15.0 0.0 0.0 0.0 15.0" Properties=species:S:1:pos:R:3:forces:R:3 energy=        2.3280350510 pbc="T T T"
       O     0.0000000000     0.0000000000     0.0000000000      5.755860145    -25.853147558     -0.000000000
       H     0.9588300000     0.0000000000     0.0000000000      0.059868422     -0.728314628     -0.000000000
       H    -0.1323200000     0.7248600000     0.0000000000     -5.815728516     26.581462186     -0.000000000
