       3
Lattice="15.0 0.0 0.0 0.0 15.0 0.0 0.0 0.0 15.0" Properties=species:S:1:pos:R:3:forces:R:3 energy=        0.0818334406 pbc="T T T"
       O     0.0000000000     0.0000000000     0.0000000000     -0.550748606     -0.957046758     -0.000000000
       H     0.9588300000     0.0000000000     0.0000000000     -0.293570497      0.819116624     -0.000000000
       H    -0.4178400000     0.8619500000     0.0000000000      0.844319104      0.137930134     -0.000000000
