       3
Lattice="15.0 0.0 0.0 0.0 15.0 0.0 0.0 0.0 15.0" Properties=species:S:1:pos:R:3:forces:R:3 energy=        0.8990382964 pbc="T T T"
       O     0.0000000000     0.0000000000     0.0000000000      2.054171910      4.613187621     -0.000000000
       H     0.9588300000     0.0000000000     0.0000000000      1.163498726     -2.811204437     -0.000000000
       H     0.3228100000     1.0184900000     0.0000000000     -3.217670585     -1.801983184     -0.000000000
