       3
Lattice="15.0 0.0 0.0 0.0 15.0 0.0 0.0 0.0 15.0" Properties=species:S:1:pos:R:3:forces:R:3 energy=        0.3831026598 pbc="T T T"
       O     0.0000000000     0.0000000000     0.0000000000      1.137514888      0.938786518     -0.000000000
       H     0.9588300000     0.0000000000     0.0000000000      0.848496634     -2.135501753     -0.000000000
       H     0.1378800000     0.9479200000     0.0000000000     -1.986011522      1.196715235     -0.000000000
