       3
Lattice="15.0 0.0 0.0 0.0 15.0 0.0 0.0 0.0 15.0" Properties=species:S:1:pos:R:3:forces:R:3 energy=        0.2743036201 pbc="T T T"
       O     0.0000000000     0.0000000000     0.0000000000     -2.245434102      1.336451004     -0.000000000
       H     0.9588300000     0.0000000000     0.0000000000     -0.273466621      1.101024027     -0.000000000
       H    -0.4995800000     0.9025400000     0.0000000000      2.518900723     -2.437475082     -0.000000000
