       3
Lattice="15.0 0.0 0.0 0.0 15.0 0.0 0.0 0.0 15.0" Properties=species:S:1:pos:R:3:forces:R:3 energy=        0.5395349614 pbc="T T T"
       O     0.0000000000     0.0000000000     0.0000000000      1.574784872     -7.907551524     -0.000000000
       H     0.9588300000     0.0000000000     0.0000000000      0.341573993     -1.113917189     -0.000000000
       H    -0.0611400000     0.8451600000     0.0000000000     -1.916358865      9.021468765     -0.000000000
