       3
Lattice="15.0 0.0 0.0 0.0 15.0 0.0 0.0 0.0 15.0" Properties=species:S:1:pos:R:3:forces:R:3 energy=        1.2867902365 pbc="T T T"
       O     0.0000000000     0.0000000000     0.0000000000      0.481065610     -1.267503138     -0.000000000
       H     0.9588300000     0.0000000000     0.0000000000      1.926261473     -4.256793320     -0.000000000
       H     0.3715800000     0.8427700000     0.0000000000     -2.407327083      5.524296457     -0.000000000
