       3
Lattice="15.0 0.0 0.0 0.0 15.0 0.0 0.0 0.0 15.0" Properties=species:S:1:pos:R:3:forces:R:3 energy=        1.1790257872 pbc="T T T"
       O     0.0000000000     0.0000000000     0.0000000000      1.174218843      0.729983892     -0.000000000
       H     0.9588300000     0.0000000000     0.0000000000      1.816008455     -4.086047975     -0.000000000
       H     0.3864500000     0.8764800000     0.0000000000     -2.990227298      3.356064083     -0.000000000
