       3
Lattice="15.0 0.0 0.0 0.0 15.0 0.0 0.0 0.0 15.0" Properties=species:S:1:pos:R:3:forces:R:3 energy=        0.0546216083 pbc="T T T"
       O     0.0000000000     0.0000000000     0.0000000000     -0.916423309      1.105459696     -0.000000000
       H     0.9588300000     0.0000000000     0.0000000000     -0.110399777      0.457725741     -0.000000000
       H    -0.3345900000     0.9367800000     0.0000000000      1.026823137     -1.563185437     -0.000000000
