       3
Lattice="15.0 0.0 0.0 0.0 15.0 0.0 0.0 0.0 15.0" Properties=species:S:1:pos:R:3:forces:R:3 energy=        0.9408373282 pbc="T T T"
       O     0.0000000000     0.0000000000     0.0000000000     -3.332887017      3.836969308     -0.000000000
       H     0.9588300000     0.0000000000     0.0000000000     -0.044471621      1.092729747     -0.000000000
       H    -0.5142700000     1.0608700000     0.0000000000      3.377358587     -4.929699106     -0.000000000
