       3
Lattice="15.0 0.0 0.0 0.0 15.0 0.0 0.0 0.0 15.0" Properties=species:S:1:pos:R:3:forces:R:3 energy=        1.8452915284 pbc="T T T"
       O     0.0000000000     0.0000000000     0.0000000000     -4.664507327      2.848313393     -0.000000000
       H     0.9588300000     0.0000000000     0.0000000000     -0.015515278      1.655644253     -0.000000000
       H    -0.7427800000     1.0540400000     0.0000000000      4.680022657     -4.503957646     -0.000000000
