       3
Lattice="15.0 0.0 0.0 0.0 15.0 0.0 0.0 0.0 15.0" Properties=species:S:1:pos:R:3:forces:R:3 energy=        1.5806719780 pbc="T T T"
       O     0.0000000000     0.0000000000     0.0000000000     -1.188698531     -7.203058538     -0.000000000
       H     0.9588300000     0.0000000000     0.0000000000      1.875554924     -4.095741090     -0.000000000
       H     0.2993800000     0.7927200000     0.0000000000     -0.686856393     11.298799629     -0.000000000
