       3
Lattice="15.0 0.0 0.0 0.0 15.0 0.0 0.0 0.0 15.0" Properties=species:S:1:pos:R:3:forces:R:3 energy=        2.8618318685 pbc="T T T"
       O     0.0000000000     0.0000000000     0.0000000000      2.565024433      5.501048686     -0.000000000
       H     0.9588300000     0.0000000000     0.0000000000      1.190326195     -2.713763027     -0.000000000
       H     0.7000000000     1.2124400000     0.0000000000     -3.755350679     -2.787285659     -0.000000000
