       3
Lattice="15.0 0.0 0.0 0.0 15.0 0.0 0.0 0.0 15.0" Properties=species:S:1:pos:R:3:forces:R:3 energy=        0.4754544984 pbc="T T T"
       O     0.0000000000     0.0000000000     0.0000000000      0.241047874      5.217528276     -0.000000000
       H     0.9588300000     0.0000000000     0.0000000000      0.411997930     -0.843659975     -0.000000000
       H    -0.0199500000     1.1050800000     0.0000000000     -0.653045805     -4.373868300     -0.000000000
