       3
Lattice="15.0 0.0 0.0 0.0 15.0 0.0 0.0 0.0 15.0" Properties=species:S:1:pos:R:3:forces:R:3 energy=        2.5518009667 pbc="T T T"
       O     0.0000000000     0.0000000000     0.0000000000     17.251785677    -22.271617212     -0.000000000
       H     0.9588300000     0.0000000000     0.0000000000     -1.006458191      1.290661383     -0.000000000
       H    -0.4870800000     0.5528900000     0.0000000000    -16.245327487     20.980955829     -0.000000000
