       3
Lattice="15.0 0.0 0.0 0.0 15.0 0.0 0.0 0.0 15.0" Properties=species:S:1:pos:R:3:forces:R:3 energy=        1.5346870405 pbc="T T T"
       O     0.0000000000     0.0000000000     0.0000000000      0.686375493      6.494760626     -0.000000000
       H     0.9588300000     0.0000000000     0.0000000000      0.539663084     -0.972592941     -0.000000000
       H     0.1162500000     1.2842200000     0.0000000000     -1.226038629     -5.522167686     -0.000000000
