       3
Lattice="15.0 0.0 0.0 0.0 15.0 0.0 0.0 0.0 15.0" Properties=species:S:1:pos:R:3:forces:R:3 energy=        1.3989908274 pbc="T T T"
       O     0.0000000000     0.0000000000     0.0000000000     -5.202534058      0.550148099     -0.000000000
       H     0.9588300000     0.0000000000     0.0000000000     -0.475839635      1.966031316     -0.000000000
       H    -0.8836800000     0.7235500000     0.0000000000      5.678373692     -2.516179466     -0.000000000
