       3
Lattice="15.0 0.0 0.0 0.0 15.0 0.0 0.0 0.0 15.0" Properties=species:S:1:pos:R:3:forces:R:3 energy=        0.6766841374 pbc="T T T"
       O    -0.0111364100     0.0014257500     0.0000000000      5.354466632     -1.255981505     -0.000000000
       H     1.1438099200    -0.0108874200     0.0000000000     -5.477327368      0.341569005     -0.000000000
       H    -0.2457536300     0.9172078800     0.0000000000      0.122860737      0.914412500     -0.000000000
