       3
Lattice="15.0 0.0 0.0 0.0 15.0 0.0 0.0 0.0 15.0" Properties=species:S:1:pos:R:3:forces:R:3 energy=        0.7047545433 pbc="T T T"
       O     0.0079449400    -0.0036324800     0.0000000000     -2.640375018      3.997501557     -0.000000000
       H     0.9621422400    -0.0890382800     0.0000000000      0.068501934      0.956580720     -0.000000000
       H    -0.3669227800     1.0756364600     0.0000000000      2.571873084     -4.954082328     -0.000000000
