       3
Lattice="15.0 0.0 0.0 0.0 15.0 0.0 0.0 0.0 15.0" Properties=species:S:1:pos:R:3:forces:R:3 energy=        0.1500048416 pbc="T T T"
       O    -0.0032203200     0.0037241900     0.0000000000      3.107129809     -3.452470984     -0.000000000
       H     1.0067034800    -0.0092212100     0.0000000000     -2.334243030      0.122008621     -0.000000000
       H    -0.2342812300     0.8790632100     0.0000000000     -0.772886779      3.330462363     -0.000000000
