       3
Lattice="15.0 0.0 0.0 0.0 15.0 0.0 0.0 0.0 15.0" Properties=species:S:1:pos:R:3:forces:R:3 energy=        0.1726670471 pbc="T T T"
       O     0.0059949900     0.0089257400     0.0000000000      0.158025063     -0.852445850     -0.000000000
       H     0.9827205800    -0.1205574200     0.0000000000     -1.481052794      1.261968835     -0.000000000
       H    -0.3565550000     0.9078474800     0.0000000000      1.323027731     -0.409522985     -0.000000000
