       3
Lattice="15.0 0.0 0.0 0.0 15.0 0.0 0.0 0.0 15.0" Properties=species:S:1:pos:R:3:forces:R:3 energy=        0.3236381241 pbc="T T T"
       O     0.0072490700     0.0100264000     0.0000000000     -2.927163456     -4.843362501     -0.000000000
       H     0.8980936800    -0.0737660900     0.0000000000      3.931250985      0.237133985     -0.000000000
       H    -0.2918301000     0.8435873300     0.0000000000     -1.004087529      4.606228516     -0.000000000
