       3
Lattice="15.0 0.0 0.0 0.0 15.0 0.0 0.0 0.0 15.0" Properties=species:S:1:pos:R:3:forces:R:3 energy=        0.6661705313 pbc="T T T"
       O     0.0065286200    -0.0059964000     0.0000000000     -2.640597984      4.313098089     -0.000000000
       H     0.9572833700    -0.0603618000     0.0000000000      0.391400247      0.723735234     -0.000000000
       H    -0.3395850300     1.0844769300     0.0000000000      2.249197736     -5.036833323     -0.000000000
