       3
Lattice="15.0 0.0 0.0 0.0 15.0 0.0 0.0 0.0 15.0" Properties=species:S:1:pos:R:3:forces:R:3 energy=        0.3491021065 pbc="T T T"
       O    -0.0128988700    -0.0073175300     0.0000000000      4.567377020      0.197819074     -0.000000000
       H     1.0458543500     0.1144477900     0.0000000000     -3.356177726     -1.343307779     -0.000000000
       H    -0.1198232600     0.9306338500     0.0000000000     -1.211199294      1.145488706     -0.000000000
