       3
Lattice="15.0 0.0 0.0 0.0 15.0 0.0 0.0 0.0 15.0" Properties=species:S:1:pos:R:3:forces:R:3 energy=        0.1893021347 pbc="T T T"
       O    -0.0014933300     0.0005988800     0.0000000000      2.104292968      1.131233166     -0.000000000
       H     1.0312506900    -0.0397183700     0.0000000000     -3.124851352      0.593661572     -0.000000000
       H    -0.2862378200     0.9591616300     0.0000000000      1.020558384     -1.724894687     -0.000000000
