       3
Lattice="15.0 0.0 0.0 0.0 15.0 0.0 0.0 0.0 15.0" Properties=species:S:1:pos:R:3:forces:R:3 energy=        0.6689396436 pbc="T T T"
       O    -0.0139958200    -0.0005562200     0.0000000000      6.096241762     -4.695669010     -0.000000000
       H     1.0965615600     0.0672864800     0.0000000000     -4.616275312     -0.759396297     -0.000000000
       H    -0.1531224000     0.8704886400     0.0000000000     -1.479966451      5.455065358     -0.000000000
