       3
Lattice="15.0 0.0 0.0 0.0 15.0 0.0 0.0 0.0 15.0" Properties=species:S:1:pos:R:3:forces:R:3 energy=        0.5421889749 pbc="T T T"
       O    -0.0141697500    -0.0035955700     0.0000000000      5.579009610     -1.218889982     -0.000000000
       H     1.1051013900     0.0723756700     0.0000000000     -4.736367175     -0.756575847     -0.000000000
       H    -0.1589015400     0.9136363200     0.0000000000     -0.842642435      1.975465829     -0.000000000
