       3
Lattice="15.0 0.0 0.0 0.0 15.0 0.0 0.0 0.0 15.0" Properties=species:S:1:pos:R:3:forces:R:3 energy=        0.3008497040 pbc="T T T"
       O     0.0094091400     0.0021590500     0.0000000000     -5.595433619      2.408888875     -0.000000000
       H     0.9039207700    -0.0801217700     0.0000000000      3.832951906      0.466574043     -0.000000000
       H    -0.3319391000     0.9748037400     0.0000000000      1.762481765     -2.875462866     -0.000000000
