       3
Lattice="15.0 0.0 0.0 0.0 15.0 0.0 0.0 0.0 15.0" Properties=species:S:1:pos:R:3:forces:R:3 energy=        0.4275873983 pbc="T T T"
       O    -0.0034440200     0.0085732200     0.0000000000      4.921761387     -6.094703933     -0.000000000
       H     1.0475890200    -0.0534922100     0.0000000000     -3.825458114      0.722693011     -0.000000000
       H    -0.2716177900     0.8463768500     0.0000000000     -1.096303273      5.372010922     -0.000000000
