       3
Lattice="15.0 0.0 0.0 0.0 15.0 0.0 0.0 0.0 15.0" Properties=species:S:1:pos:R:3:forces:R:3 energy=        0.4788466535 pbc="T T T"
       O    -0.0080071000    -0.0035036100     0.0000000000      3.932858440      2.042305441     -0.000000000
       H     1.0977652800     0.0018339900     0.0000000000     -4.716168528      0.188846177     -0.000000000
       H    -0.2493730900     0.9827188200     0.0000000000      0.783310139     -2.231151618     -0.000000000
