       3
Lattice="15.0 0.0 0.0 0.0 15.0 0.0 0.0 0.0 15.0" Properties=species:S:1:pos:R:3:forces:R:3 energy=        0.5404339467 pbc="T T T"
       O    -0.0110835300     0.0011653700     0.0000000000      5.672336636     -5.313737973     -0.000000000
       H     1.0688884500     0.0474596300     0.0000000000     -4.121666461     -0.543227560     -0.000000000
       H    -0.1716699000     0.8629926800     0.0000000000     -1.550670175      5.856965533     -0.000000000
