       3
Lattice="15.0 0.0 0.0 0.0 15.0 0.0 0.0 0.0 15.0" Properties=species:S:1:pos:R:3:forces:R:3 energy=        1.1170763431 pbc="T T T"
       O    -0.0123753200    -0.0013441300     0.0000000000      4.228663792    -11.087872088     -0.000000000
       H     0.9843931300     0.1368995000     0.0000000000     -1.131047944     -1.977082642     -0.000000000
       H    -0.0666707400     0.8133794400     0.0000000000     -3.097615849     13.064954730     -0.000000000
