       3
Lattice="15.0 0.0 0.0 0.0 15.0 0.0 0.0 0.0 15.0" Properties=species:S:1:pos:R:3:forces:R:3 energy=        0.3818043992 pbc="T T T"
       O     0.0008729600    -0.0061340000     0.0000000000     -5.967380479      0.583761895     -0.000000000
       H     0.8644890900     0.0818289800     0.0000000000      7.074009925     -0.510897517     -0.000000000
       H    -0.1570277200     0.9444687100     0.0000000000     -1.106629497     -0.072864430     -0.000000000
