       3
Lattice="15.0 0.0 0.0 0.0 15.0 0.0 0.0 0.0 15.0" Properties=species:S:1:pos:R:3:forces:R:3 energy=        0.4863520952 pbc="T T T"
       O     0.0107792800     0.0006721500     0.0000000000     -8.267200278      3.087011123     -0.000000000
       H     0.8763220800    -0.0708910900     0.0000000000      6.482045693      0.216933898     -0.000000000
       H    -0.3260852100     0.9891711400     0.0000000000      1.785154586     -3.303945021     -0.000000000
