       3
Lattice="15.0 0.0 0.0 0.0 15.0 0.0 0.0 0.0 15.0" Properties=species:S:1:pos:R:3:forces:R:3 energy=        0.3769863321 pbc="T T T"
       O    -0.0064939800     0.0000519800     0.0000000000      2.711646339     -5.878897516     -0.000000000
       H     0.9679977100     0.0727502600     0.0000000000     -0.534707897     -0.984793911     -0.000000000
       H    -0.1436180800     0.8553718200     0.0000000000     -2.176938493      6.863691427     -0.000000000
