       3
Lattice="15.0 0.0 0.0 0.0 15.0 0.0 0.0 0.0 15.0" Properties=species:S:1:pos:R:3:forces:R:3 energy=        0.2601612451 pbc="T T T"
       O    -0.0112186400    -0.0076336000     0.0000000000      3.942035380      0.816266504     -0.000000000
       H     1.0279082200     0.1086722300     0.0000000000     -2.863764753     -1.255723520     -0.000000000
       H    -0.1285436700     0.9414257300     0.0000000000     -1.078270627      0.439457016     -0.000000000
