       3
Lattice="15.0 0.0 0.0 0.0 15.0 0.0 0.0 0.0 15.0" Properties=species:S:1:pos:R:3:forces:R:3 energy=        0.4354445146 pbc="T T T"
       O     0.0050417200    -0.0074908600     0.0000000000     -6.137063444      3.886913165     -0.000000000
       H     0.8888915100     0.0157796100     0.0000000000      5.266048718      0.040503893     -0.000000000
       H    -0.2475930500     1.0320529900     0.0000000000      0.871014726     -3.927417057     -0.000000000
