       3
Lattice="15.0 0.0 0.0 0.0 15.0 0.0 0.0 0.0 15.0" Properties=species:S:1:pos:R:3:forces:R:3 energy=        0.1798855312 pbc="T T T"
       O     0.0015585900    -0.0014715700     0.0000000000      0.142905838      2.428012184     -0.000000000
       H     0.9906606700    -0.0392871600     0.0000000000     -1.506823641      0.539883016     -0.000000000
       H    -0.2940839500     0.9915898200     0.0000000000      1.363917752     -2.967895200     -0.000000000
