       3
Lattice="15.0 0.0 0.0 0.0 15.0 0.0 0.0 0.0 15.0" Properties=species:S:1:pos:R:3:forces:R:3 energy=        0.0073626636 pbc="T T T"
       O    -0.0009983800    -0.0021862900     0.0000000000     -0.097868111      0.661688058     -0.000000000
       H     0.9553292300     0.0219127400     0.0000000000      0.212171801     -0.210038556     -0.000000000
       H    -0.2181699000     0.9417326300     0.0000000000     -0.114303690     -0.451649502     -0.000000000
