       3
Lattice="15.0 0.0 0.0 0.0 15.0 0.0 0.0 0.0 15.0" Properties=species:S:1:pos:R:3:forces:R:3 energy=        0.5612088956 pbc="T T T"
       O    -0.0022670600    -0.0161956200     0.0000000000     -3.782725845      4.352317149     -0.000000000
       H     0.8835729800     0.1374114200     0.0000000000      4.647339241     -0.739192559     -0.000000000
       H    -0.1262756900     1.0485713700     0.0000000000     -0.864613345     -3.613124590     -0.000000000
