       3
Lattice="15.0 0.0 0.0 0.0 15.0 0.0 0.0 0.0 15.0" Properties=species:S:1:pos:R:3:forces:R:3 energy=        0.5029996702 pbc="T T T"
       O     0.0056591000    -0.0062958500     0.0000000000     -3.243198052      4.253330299     -0.000000000
       H     0.9400949200    -0.0353550600     0.0000000000      1.411359153      0.467187817     -0.000000000
       H    -0.3085960200     1.0642224100     0.0000000000      1.831838899     -4.720518116     -0.000000000
