       3
Lattice="15.0 0.0 0.0 0.0 15.0 0.0 0.0 0.0 15.0" Properties=species:S:1:pos:R:3:forces:R:3 energy=        0.7322595374 pbc="T T T"
       O    -0.0031461400     0.0127252900     0.0000000000      5.983313305     -7.225956023     -0.000000000
       H     1.0884275800    -0.1019584300     0.0000000000     -4.887515305      1.376863211     -0.000000000
       H    -0.3171851800     0.8289471100     0.0000000000     -1.095798000      5.849092812     -0.000000000
