       3
Lattice="15.0 0.0 0.0 0.0 15.0 0.0 0.0 0.0 15.0" Properties=species:S:1:pos:R:3:forces:R:3 energy=        0.1670721195 pbc="T T T"
       O    -0.0057013900    -0.0100429900     0.0000000000      0.226758088      2.296961451     -0.000000000
       H     0.9411243000     0.1156593000     0.0000000000      0.842401574     -1.147881067     -0.000000000
       H    -0.1293223700     0.9726770400     0.0000000000     -1.069159713     -1.149080384     -0.000000000
