       3
Lattice="15.0 0.0 0.0 0.0 15.0 0.0 0.0 0.0 15.0" Properties=species:S:1:pos:R:3:forces:R:3 energy=        0.5786549016 pbc="T T T"
       O     0.0009959700    -0.0074553500     0.0000000000      0.355199612      4.264977402     -0.000000000
       H     1.0093617300    -0.0280204500     0.0000000000     -2.151648957      0.524789040     -0.000000000
       H    -0.3038554200     1.0752901400     0.0000000000      1.796449344     -4.789766493     -0.000000000
