       3
Lattice="15.0 0.0 0.0 0.0 15.0 0.0 0.0 0.0 15.0" Properties=species:S:1:pos:R:3:forces:R:3 energy=        0.6195326947 pbc="T T T"
       O    -0.0132148700    -0.0028486100     0.0000000000      5.103924337     -5.486747432     -0.000000000
       H     1.0330415300     0.1142102100     0.0000000000     -2.963329844     -1.503618502     -0.000000000
       H    -0.1019952800     0.8599463500     0.0000000000     -2.140594493      6.990365934     -0.000000000
