       3
Lattice="15.0 0.0 0.0 0.0 15.0 0.0 0.0 0.0 15.0" Properties=species:S:1:pos:R:3:forces:R:3 energy=        0.2871330974 pbc="T T T"
       O    -0.0028413200     0.0031967200     0.0000000000      1.850651927     -6.040576890     -0.000000000
       H     0.9559169400     0.0272069500     0.0000000000      0.070567919     -0.436129853     -0.000000000
       H    -0.1895088100     0.8510060100     0.0000000000     -1.921219846      6.476706743     -0.000000000
