       3
Lattice="15.0 0.0 0.0 0.0 15.0 0.0 0.0 0.0 15.0" Properties=species:S:1:pos:R:3:forces:R:3 energy=        1.2321431175 pbc="T T T"
       O    -0.0110058300     0.0015139700     0.0000000000      4.804266339    -13.551214691     -0.000000000
       H     0.9894297300     0.1071051500     0.0000000000     -1.423512712     -1.593246173     -0.000000000
       H    -0.0934428400     0.7978138900     0.0000000000     -3.380753627     15.144460915     -0.000000000
