       3
Lattice="15.0 0.0 0.0 0.0 15.0 0.0 0.0 0.0 15.0" Properties=species:S:1:pos:R:3:forces:R:3 energy=        0.4846117883 pbc="T T T"
       O    -0.0078787400     0.0026047900     0.0000000000      4.729273755     -7.145698537     -0.000000000
       H     1.0167058200     0.0439492700     0.0000000000     -2.642698319     -0.592401731     -0.000000000
       H    -0.1703497100     0.8436581800     0.0000000000     -2.086575436      7.738100268     -0.000000000
