       3
Lattice="15.0 0.0 0.0 0.0 15.0 0.0 0.0 0.0 15.0" Properties=species:S:1:pos:R:3:forces:R:3 energy=        0.5050678117 pbc="T T T"
       O     0.0043589600     0.0004530000     0.0000000000      0.100013389      2.762942083     -0.000000000
       H     1.0147383600    -0.0985600100     0.0000000000     -2.486204863      1.209468632     -0.000000000
       H    -0.3626070000     1.0203188000     0.0000000000      2.386191474     -3.972410715     -0.000000000
