       3
Lattice="15.0 0.0 0.0 0.0 15.0 0.0 0.0 0.0 15.0" Properties=species:S:1:pos:R:3:forces:R:3 energy=        0.3908830727 pbc="T T T"
       O     0.0122088500     0.0058470200     0.0000000000     -5.751738253      2.171242212     -0.000000000
       H     0.9049807500    -0.1270692200     0.0000000000      3.454483182      0.697251933     -0.000000000
       H    -0.3774337800     0.9632206300     0.0000000000      2.297255122     -2.868494145     -0.000000000
