       3
Lattice="15.0 0.0 0.0 0.0 15.0 0.0 0.0 0.0 15.0" Properties=species:S:1:pos:R:3:forces:R:3 energy=        0.0355673142 pbc="T T T"
       O    -0.0028896500     0.0000525700     0.0000000000      1.809358397     -0.958194345     -0.000000000
       H     0.9867359900     0.0137779400     0.0000000000     -1.421772588     -0.137829912     -0.000000000
       H    -0.2195611900     0.9143351100     0.0000000000     -0.387585808      1.096024257     -0.000000000
