       3
Lattice="15.0 0.0 0.0 0.0 15.0 0.0 0.0 0.0 15.0" Properties=species:S:1:pos:R:3:forces:R:3 energy=        0.1481948245 pbc="T T T"
       O     0.0031829800    -0.0006413800     0.0000000000     -0.869392976      2.284026430     -0.000000000
       H     0.9698717800    -0.0457790200     0.0000000000     -0.512594189      0.547528349     -0.000000000
       H    -0.2990755300     0.9849059500     0.0000000000      1.381987165     -2.831554780     -0.000000000
