       3
Lattice="15.0 0.0 0.0 0.0 15.0 0.0 0.0 0.0 15.0" Properties=species:S:1:pos:R:3:forces:R:3 energy=        0.6239590456 pbc="T T T"
       O    -0.0137172000    -0.0034569600     0.0000000000      5.131882578     -5.113608556     -0.000000000
       H     1.0354913300     0.1204153900     0.0000000000     -3.013524126     -1.578158418     -0.000000000
       H    -0.0964727000     0.8633960700     0.0000000000     -2.118358503      6.691766974     -0.000000000
