       3
Lattice="15.0 0.0 0.0 0.0 15.0 0.0 0.0 0.0 15.0" Properties=species:S:1:pos:R:3:forces:R:3 energy=        0.4007853015 pbc="T T T"
       O    -0.0088461800    -0.0060098600     0.0000000000      3.875749841      2.531136712     -0.000000000
       H     1.0790932900     0.0345712800     0.0000000000     -4.297673417     -0.217591843     -0.000000000
       H    -0.2173832900     0.9897573000     0.0000000000      0.421923576     -2.313544868     -0.000000000
