       3
Lattice="15.0 0.0 0.0 0.0 15.0 0.0 0.0 0.0 15.0" Properties=species:S:1:pos:R:3:forces:R:3 energy=        0.9003810857 pbc="T T T"
       O    -0.0051515800    -0.0223828300     0.0000000000      0.377860195      6.248883961     -0.000000000
       H     0.9609799900     0.1323477300     0.0000000000     -0.350687632     -0.930120250     -0.000000000
       H    -0.1579032500     1.1518310700     0.0000000000     -0.027172562     -5.318763711     -0.000000000
