       3
Lattice="15.0 0.0 0.0 0.0 15.0 0.0 0.0 0.0 15.0" Properties=species:S:1:pos:R:3:forces:R:3 energy=        0.1853485816 pbc="T T T"
       O     0.0018780600    -0.0061212300     0.0000000000     -3.819971120      2.669779247     -0.000000000
       H     0.9053326800     0.0376858600     0.0000000000      3.660289032     -0.229388687     -0.000000000
       H    -0.2138241600     0.9884096200     0.0000000000      0.159682140     -2.440390560     -0.000000000
