       3
Lattice="15.0 0.0 0.0 0.0 15.0 0.0 0.0 0.0 15.0" Properties=species:S:1:pos:R:3:forces:R:3 energy=        0.2531867845 pbc="T T T"
       O    -0.0105152200    -0.0071003900     0.0000000000      3.962988132      1.343389129     -0.000000000
       H     1.0412068400     0.0879964800     0.0000000000     -3.292801340     -0.961663485     -0.000000000
       H    -0.1530065900     0.9536391900     0.0000000000     -0.670186792     -0.381725644     -0.000000000
