       3
Lattice="15.0 0.0 0.0 0.0 15.0 0.0 0.0 0.0 15.0" Properties=species:S:1:pos:R:3:forces:R:3 energy=        0.9414160545 pbc="T T T"
       O     0.0070058600    -0.0058586600     0.0000000000    -13.613446524      2.016472887     -0.000000000
       H     0.8153959700     0.0435015700     0.0000000000     13.778664045      0.087639127     -0.000000000
       H    -0.2052691100     0.9784263700     0.0000000000     -0.165217522     -2.104112013     -0.000000000
