 3
 energy=6.3149644325467449 cutoff=3.72000000 nneightol=1.20000000 pbc="T T T" Lattice="15.00000000       0.00000000       0.00000000       0.00000000      15.00000000       0.00000000       0.00000000       0.00000000      15.00000000" Properties=species:S:1:pos:R:3:Z:I:1:map_shift:I:3:n_neighb:I:1
 O               0.00000000      0.00000000      0.00000000       8       0       0       0       2
 H               0.70000000      0.00000000      0.00000000       1       0       0       0       2
 H              -0.17340000      0.67818000      0.00000000       1       0       0       0       2
 3
 energy=5.6637443272682333 cutoff=3.72000000 nneightol=1.20000000 pbc="T T T" Lattice="15.00000000       0.00000000       0.00000000       0.00000000      15.00000000       0.00000000       0.00000000       0.00000000      15.00000000" Properties=species:S:1:pos:R:3:Z:I:1:map_shift:I:3:n_neighb:I:1
 O               0.00000000      0.00000000      0.00000000       8       0       0       0       2
 H               0.70000000      0.00000000      0.00000000       1       0       0       0       2
 H              -0.17938000      0.70157000      0.00000000       1       0       0       0       2
 3
 energy=5.1038138273616909 cutoff=3.72000000 nneightol=1.20000000 pbc="T T T" Lattice="15.00000000       0.00000000       0.00000000       0.00000000      15.00000000       0.00000000       0.00000000       0.00000000      15.00000000" Properties=species:S:1:pos:R:3:Z:I:1:map_shift:I:3:n_neighb:I:1
 O               0.00000000      0.00000000      0.00000000       8       0       0       0       2
 H               0.70000000      0.00000000      0.00000000       1       0       0       0       2
 H              -0.18536000      0.72496000      0.00000000       1       0       0       0       2
 3
 energy=4.6328777116766418 cutoff=3.72000000 nneightol=1.20000000 pbc="T T T" Lattice="15.00000000       0.00000000       0.00000000       0.00000000      15.00000000       0.00000000       0.00000000       0.00000000      15.00000000" Properties=species:S:1:pos:R:3:Z:I:1:map_shift:I:3:n_neighb:I:1
 O               0.00000000      0.00000000      0.00000000       8       0       0       0       2
 H               0.70000000      0.00000000      0.00000000       1       0       0       0       2
 H              -0.19134000      0.74834000      0.00000000       1       0       0       0       2
 3
 energy=4.2462316887098552 cutoff=3.72000000 nneightol=1.20000000 pbc="T T T" Lattice="15.00000000       0.00000000       0.00000000       0.00000000      15.00000000       0.00000000       0.00000000       0.00000000      15.00000000" Properties=species:S:1:pos:R:3:Z:I:1:map_shift:I:3:n_neighb:I:1
 O               0.00000000      0.00000000      0.00000000       8       0       0       0       2
 H               0.70000000      0.00000000      0.00000000       1       0       0       0       2
 H              -0.19732000      0.77172000      0.00000000       1       0       0       0       2
 3
 energy=3.9376950040416006 cutoff=3.72000000 nneightol=1.20000000 pbc="T T T" Lattice="15.00000000       0.00000000       0.00000000       0.00000000      15.00000000       0.00000000       0.00000000       0.00000000      15.00000000" Properties=species:S:1:pos:R:3:Z:I:1:map_shift:I:3:n_neighb:I:1
 O               0.00000000      0.00000000      0.00000000       8       0       0       0       2
 H               0.70000000      0.00000000      0.00000000       1       0       0       0       2
 H              -0.20330000      0.79511000      0.00000000       1       0       0       0       2
 3
 energy=3.7001904601594617 cutoff=3.72000000 nneightol=1.20000000 pbc="T T T" Lattice="15.00000000       0.00000000       0.00000000       0.00000000      15.00000000       0.00000000       0.00000000       0.00000000      15.00000000" Properties=species:S:1:pos:R:3:Z:I:1:map_shift:I:3:n_neighb:I:1
 O               0.00000000      0.00000000      0.00000000       8       0       0       0       2
 H               0.70000000      0.00000000      0.00000000       1       0       0       0       2
 H              -0.20928000      0.81850000      0.00000000       1       0       0       0       2
 3
 energy=3.5257893527480633 cutoff=3.72000000 nneightol=1.20000000 pbc="T T T" Lattice="15.00000000       0.00000000       0.00000000       0.00000000      15.00000000       0.00000000       0.00000000       0.00000000      15.00000000" Properties=species:S:1:pos:R:3:Z:I:1:map_shift:I:3:n_neighb:I:1
 O               0.00000000      0.00000000      0.00000000       8       0       0       0       2
 H               0.70000000      0.00000000      0.00000000       1       0       0       0       2
 H              -0.21526000      0.84189000      0.00000000       1       0       0       0       2
 3
 energy=3.4064382109692346 cutoff=3.72000000 nneightol=1.20000000 pbc="T T T" Lattice="15.00000000       0.00000000       0.00000000       0.00000000      15.00000000       0.00000000       0.00000000       0.00000000      15.00000000" Properties=species:S:1:pos:R:3:Z:I:1:map_shift:I:3:n_neighb:I:1
 O               0.00000000      0.00000000      0.00000000       8       0       0       0       2
 H               0.70000000      0.00000000      0.00000000       1       0       0       0       2
 H              -0.22124000      0.86526000      0.00000000       1       0       0       0       2
 3
 energy=3.3340742017574527 cutoff=3.72000000 nneightol=1.20000000 pbc="T T T" Lattice="15.00000000       0.00000000       0.00000000       0.00000000      15.00000000       0.00000000       0.00000000       0.00000000      15.00000000" Properties=species:S:1:pos:R:3:Z:I:1:map_shift:I:3:n_neighb:I:1
 O               0.00000000      0.00000000      0.00000000       8       0       0       0       2
 H               0.70000000      0.00000000      0.00000000       1       0       0       0       2
 H              -0.22722000      0.88865000      0.00000000       1       0       0       0       2
 3
 energy=3.3015309365451060 cutoff=3.72000000 nneightol=1.20000000 pbc="T T T" Lattice="15.00000000       0.00000000       0.00000000       0.00000000      15.00000000       0.00000000       0.00000000       0.00000000      15.00000000" Properties=species:S:1:pos:R:3:Z:I:1:map_shift:I:3:n_neighb:I:1
 O               0.00000000      0.00000000      0.00000000       8       0       0       0       2
 H               0.70000000      0.00000000      0.00000000       1       0       0       0       2
 H              -0.23319000      0.91204000      0.00000000       1       0       0       0       2
 3
 energy=3.3023388843178907 cutoff=3.72000000 nneightol=1.20000000 pbc="T T T" Lattice="15.00000000       0.00000000       0.00000000       0.00000000      15.00000000       0.00000000       0.00000000       0.00000000      15.00000000" Properties=species:S:1:pos:R:3:Z:I:1:map_shift:I:3:n_neighb:I:1
 O               0.00000000      0.00000000      0.00000000       8       0       0       0       2
 H               0.70000000      0.00000000      0.00000000       1       0       0       0       2
 H              -0.23917000      0.93543000      0.00000000       1       0       0       0       2
 3
 energy=3.3309723161859495 cutoff=3.72000000 nneightol=1.20000000 pbc="T T T" Lattice="15.00000000       0.00000000       0.00000000       0.00000000      15.00000000       0.00000000       0.00000000       0.00000000      15.00000000" Properties=species:S:1:pos:R:3:Z:I:1:map_shift:I:3:n_neighb:I:1
 O               0.00000000      0.00000000      0.00000000       8       0       0       0       2
 H               0.70000000      0.00000000      0.00000000       1       0       0       0       2
 H              -0.24515000      0.95881000      0.00000000       1       0       0       0       2
 3
 energy=3.3828312192393994 cutoff=3.72000000 nneightol=1.20000000 pbc="T T T" Lattice="15.00000000       0.00000000       0.00000000       0.00000000      15.00000000       0.00000000       0.00000000       0.00000000      15.00000000" Properties=species:S:1:pos:R:3:Z:I:1:map_shift:I:3:n_neighb:I:1
 O               0.00000000      0.00000000      0.00000000       8       0       0       0       2
 H               0.70000000      0.00000000      0.00000000       1       0       0       0       2
 H              -0.25113000      0.98219000      0.00000000       1       0       0       0       2
 3
 energy=3.4541631970231919 cutoff=3.72000000 nneightol=1.20000000 pbc="T T T" Lattice="15.00000000       0.00000000       0.00000000       0.00000000      15.00000000       0.00000000       0.00000000       0.00000000      15.00000000" Properties=species:S:1:pos:R:3:Z:I:1:map_shift:I:3:n_neighb:I:1
 O               0.00000000      0.00000000      0.00000000       8       0       0       0       2
 H               0.70000000      0.00000000      0.00000000       1       0       0       0       2
 H              -0.25711000      1.00558000      0.00000000       1       0       0       0       2
 3
 energy=3.5418154686414240 cutoff=3.72000000 nneightol=1.20000000 pbc="T T T" Lattice="15.00000000       0.00000000       0.00000000       0.00000000      15.00000000       0.00000000       0.00000000       0.00000000      15.00000000" Properties=species:S:1:pos:R:3:Z:I:1:map_shift:I:3:n_neighb:I:1
 O               0.00000000      0.00000000      0.00000000       8       0       0       0       2
 H               0.70000000      0.00000000      0.00000000       1       0       0       0       2
 H              -0.26309000      1.02897000      0.00000000       1       0       0       0       2
 3
 energy=3.6431385136933727 cutoff=3.72000000 nneightol=1.20000000 pbc="T T T" Lattice="15.00000000       0.00000000       0.00000000       0.00000000      15.00000000       0.00000000       0.00000000       0.00000000      15.00000000" Properties=species:S:1:pos:R:3:Z:I:1:map_shift:I:3:n_neighb:I:1
 O               0.00000000      0.00000000      0.00000000       8       0       0       0       2
 H               0.70000000      0.00000000      0.00000000       1       0       0       0       2
 H              -0.26907000      1.05236000      0.00000000       1       0       0       0       2
 3
 energy=3.7557275304882651 cutoff=3.72000000 nneightol=1.20000000 pbc="T T T" Lattice="15.00000000       0.00000000       0.00000000       0.00000000      15.00000000       0.00000000       0.00000000       0.00000000      15.00000000" Properties=species:S:1:pos:R:3:Z:I:1:map_shift:I:3:n_neighb:I:1
 O               0.00000000      0.00000000      0.00000000       8       0       0       0       2
 H               0.70000000      0.00000000      0.00000000       1       0       0       0       2
 H              -0.27505000      1.07573000      0.00000000       1       0       0       0       2
 3
 energy=3.8776882977363059 cutoff=3.72000000 nneightol=1.20000000 pbc="T T T" Lattice="15.00000000       0.00000000       0.00000000       0.00000000      15.00000000       0.00000000       0.00000000       0.00000000      15.00000000" Properties=species:S:1:pos:R:3:Z:I:1:map_shift:I:3:n_neighb:I:1
 O               0.00000000      0.00000000      0.00000000       8       0       0       0       2
 H               0.70000000      0.00000000      0.00000000       1       0       0       0       2
 H              -0.28103000      1.09912000      0.00000000       1       0       0       0       2
 3
 energy=4.0070295553118385 cutoff=3.72000000 nneightol=1.20000000 pbc="T T T" Lattice="15.00000000       0.00000000       0.00000000       0.00000000      15.00000000       0.00000000       0.00000000       0.00000000      15.00000000" Properties=species:S:1:pos:R:3:Z:I:1:map_shift:I:3:n_neighb:I:1
 O               0.00000000      0.00000000      0.00000000       8       0       0       0       2
 H               0.70000000      0.00000000      0.00000000       1       0       0       0       2
 H              -0.28701000      1.12251000      0.00000000       1       0       0       0       2
 3
 energy=4.1419985730126996 cutoff=3.72000000 nneightol=1.20000000 pbc="T T T" Lattice="15.00000000       0.00000000       0.00000000       0.00000000      15.00000000       0.00000000       0.00000000       0.00000000      15.00000000" Properties=species:S:1:pos:R:3:Z:I:1:map_shift:I:3:n_neighb:I:1
 O               0.00000000      0.00000000      0.00000000       8       0       0       0       2
 H               0.70000000      0.00000000      0.00000000       1       0       0       0       2
 H              -0.29299000      1.14590000      0.00000000       1       0       0       0       2
 3
 energy=4.2809449068314862 cutoff=3.72000000 nneightol=1.20000000 pbc="T T T" Lattice="15.00000000       0.00000000       0.00000000       0.00000000      15.00000000       0.00000000       0.00000000       0.00000000      15.00000000" Properties=species:S:1:pos:R:3:Z:I:1:map_shift:I:3:n_neighb:I:1
 O               0.00000000      0.00000000      0.00000000       8       0       0       0       2
 H               0.70000000      0.00000000      0.00000000       1       0       0       0       2
 H              -0.29897000      1.16928000      0.00000000       1       0       0       0       2
 3
 energy=4.4225064773201765 cutoff=3.72000000 nneightol=1.20000000 pbc="T T T" Lattice="15.00000000       0.00000000       0.00000000       0.00000000      15.00000000       0.00000000       0.00000000       0.00000000      15.00000000" Properties=species:S:1:pos:R:3:Z:I:1:map_shift:I:3:n_neighb:I:1
 O               0.00000000      0.00000000      0.00000000       8       0       0       0       2
 H               0.70000000      0.00000000      0.00000000       1       0       0       0       2
 H              -0.30495000      1.19266000      0.00000000       1       0       0       0       2
 3
 energy=4.5655204913835448 cutoff=3.72000000 nneightol=1.20000000 pbc="T T T" Lattice="15.00000000       0.00000000       0.00000000       0.00000000      15.00000000       0.00000000       0.00000000       0.00000000      15.00000000" Properties=species:S:1:pos:R:3:Z:I:1:map_shift:I:3:n_neighb:I:1
 O               0.00000000      0.00000000      0.00000000       8       0       0       0       2
 H               0.70000000      0.00000000      0.00000000       1       0       0       0       2
 H              -0.31093000      1.21605000      0.00000000       1       0       0       0       2
 3
 energy=4.7089121641631166 cutoff=3.72000000 nneightol=1.20000000 pbc="T T T" Lattice="15.00000000       0.00000000       0.00000000       0.00000000      15.00000000       0.00000000       0.00000000       0.00000000      15.00000000" Properties=species:S:1:pos:R:3:Z:I:1:map_shift:I:3:n_neighb:I:1
 O               0.00000000      0.00000000      0.00000000       8       0       0       0       2
 H               0.70000000      0.00000000      0.00000000       1       0       0       0       2
 H              -0.31691000      1.23944000      0.00000000       1       0       0       0       2
 3
 energy=4.8518015294491050 cutoff=3.72000000 nneightol=1.20000000 pbc="T T T" Lattice="15.00000000       0.00000000       0.00000000       0.00000000      15.00000000       0.00000000       0.00000000       0.00000000      15.00000000" Properties=species:S:1:pos:R:3:Z:I:1:map_shift:I:3:n_neighb:I:1
 O               0.00000000      0.00000000      0.00000000       8       0       0       0       2
 H               0.70000000      0.00000000      0.00000000       1       0       0       0       2
 H              -0.32289000      1.26282000      0.00000000       1       0       0       0       2
 3
 energy=4.9936526233207630 cutoff=3.72000000 nneightol=1.20000000 pbc="T T T" Lattice="15.00000000       0.00000000       0.00000000       0.00000000      15.00000000       0.00000000       0.00000000       0.00000000      15.00000000" Properties=species:S:1:pos:R:3:Z:I:1:map_shift:I:3:n_neighb:I:1
 O               0.00000000      0.00000000      0.00000000       8       0       0       0       2
 H               0.70000000      0.00000000      0.00000000       1       0       0       0       2
 H              -0.32887000      1.28621000      0.00000000       1       0       0       0       2
 3
 energy=5.1338245118366785 cutoff=3.72000000 nneightol=1.20000000 pbc="T T T" Lattice="15.00000000       0.00000000       0.00000000       0.00000000      15.00000000       0.00000000       0.00000000       0.00000000      15.00000000" Properties=species:S:1:pos:R:3:Z:I:1:map_shift:I:3:n_neighb:I:1
 O               0.00000000      0.00000000      0.00000000       8       0       0       0       2
 H               0.70000000      0.00000000      0.00000000       1       0       0       0       2
 H              -0.33484000      1.30959000      0.00000000       1       0       0       0       2
 3
 energy=5.2720433332408589 cutoff=3.72000000 nneightol=1.20000000 pbc="T T T" Lattice="15.00000000       0.00000000       0.00000000       0.00000000      15.00000000       0.00000000       0.00000000       0.00000000      15.00000000" Properties=species:S:1:pos:R:3:Z:I:1:map_shift:I:3:n_neighb:I:1
 O               0.00000000      0.00000000      0.00000000       8       0       0       0       2
 H               0.70000000      0.00000000      0.00000000       1       0       0       0       2
 H              -0.34082000      1.33298000      0.00000000       1       0       0       0       2
 3
 energy=5.4078725923009259 cutoff=3.72000000 nneightol=1.20000000 pbc="T T T" Lattice="15.00000000       0.00000000       0.00000000       0.00000000      15.00000000       0.00000000       0.00000000       0.00000000      15.00000000" Properties=species:S:1:pos:R:3:Z:I:1:map_shift:I:3:n_neighb:I:1
 O               0.00000000      0.00000000      0.00000000       8       0       0       0       2
 H               0.70000000      0.00000000      0.00000000       1       0       0       0       2
 H              -0.34680000      1.35637000      0.00000000       1       0       0       0       2
 3
 energy=5.6638160623069709 cutoff=3.72000000 nneightol=1.20000000 pbc="T T T" Lattice="15.00000000       0.00000000       0.00000000       0.00000000      15.00000000       0.00000000       0.00000000       0.00000000      15.00000000" Properties=species:S:1:pos:R:3:Z:I:1:map_shift:I:3:n_neighb:I:1
 O               0.00000000      0.00000000      0.00000000       8       0       0       0       2
 H               0.72414000      0.00000000      0.00000000       1       0       0       0       2
 H              -0.17340000      0.67818000      0.00000000       1       0       0       0       2
 3
 energy=4.9994561675414673 cutoff=3.72000000 nneightol=1.20000000 pbc="T T T" Lattice="15.00000000       0.00000000       0.00000000       0.00000000      15.00000000       0.00000000       0.00000000       0.00000000      15.00000000" Properties=species:S:1:pos:R:3:Z:I:1:map_shift:I:3:n_neighb:I:1
 O               0.00000000      0.00000000      0.00000000       8       0       0       0       2
 H               0.72414000      0.00000000      0.00000000       1       0       0       0       2
 H              -0.17938000      0.70157000      0.00000000       1       0       0       0       2
 3
 energy=4.4288145876106739 cutoff=3.72000000 nneightol=1.20000000 pbc="T T T" Lattice="15.00000000       0.00000000       0.00000000       0.00000000      15.00000000       0.00000000       0.00000000       0.00000000      15.00000000" Properties=species:S:1:pos:R:3:Z:I:1:map_shift:I:3:n_neighb:I:1
 O               0.00000000      0.00000000      0.00000000       8       0       0       0       2
 H               0.72414000      0.00000000      0.00000000       1       0       0       0       2
 H              -0.18536000      0.72496000      0.00000000       1       0       0       0       2
 3
 energy=3.9491753685950783 cutoff=3.72000000 nneightol=1.20000000 pbc="T T T" Lattice="15.00000000       0.00000000       0.00000000       0.00000000      15.00000000       0.00000000       0.00000000       0.00000000      15.00000000" Properties=species:S:1:pos:R:3:Z:I:1:map_shift:I:3:n_neighb:I:1
 O               0.00000000      0.00000000      0.00000000       8       0       0       0       2
 H               0.72414000      0.00000000      0.00000000       1       0       0       0       2
 H              -0.19134000      0.74834000      0.00000000       1       0       0       0       2
 3
 energy=3.5554417536658036 cutoff=3.72000000 nneightol=1.20000000 pbc="T T T" Lattice="15.00000000       0.00000000       0.00000000       0.00000000      15.00000000       0.00000000       0.00000000       0.00000000      15.00000000" Properties=species:S:1:pos:R:3:Z:I:1:map_shift:I:3:n_neighb:I:1
 O               0.00000000      0.00000000      0.00000000       8       0       0       0       2
 H               0.72414000      0.00000000      0.00000000       1       0       0       0       2
 H              -0.19732000      0.77172000      0.00000000       1       0       0       0       2
 3
 energy=3.2410958686056830 cutoff=3.72000000 nneightol=1.20000000 pbc="T T T" Lattice="15.00000000       0.00000000       0.00000000       0.00000000      15.00000000       0.00000000       0.00000000       0.00000000      15.00000000" Properties=species:S:1:pos:R:3:Z:I:1:map_shift:I:3:n_neighb:I:1
 O               0.00000000      0.00000000      0.00000000       8       0       0       0       2
 H               0.72414000      0.00000000      0.00000000       1       0       0       0       2
 H              -0.20330000      0.79511000      0.00000000       1       0       0       0       2
 3
 energy=2.9987899383214724 cutoff=3.72000000 nneightol=1.20000000 pbc="T T T" Lattice="15.00000000       0.00000000       0.00000000       0.00000000      15.00000000       0.00000000       0.00000000       0.00000000      15.00000000" Properties=species:S:1:pos:R:3:Z:I:1:map_shift:I:3:n_neighb:I:1
 O               0.00000000      0.00000000      0.00000000       8       0       0       0       2
 H               0.72414000      0.00000000      0.00000000       1       0       0       0       2
 H              -0.20928000      0.81850000      0.00000000       1       0       0       0       2
 3
 energy=2.8203840620733445 cutoff=3.72000000 nneightol=1.20000000 pbc="T T T" Lattice="15.00000000       0.00000000       0.00000000       0.00000000      15.00000000       0.00000000       0.00000000       0.00000000      15.00000000" Properties=species:S:1:pos:R:3:Z:I:1:map_shift:I:3:n_neighb:I:1
 O               0.00000000      0.00000000      0.00000000       8       0       0       0       2
 H               0.72414000      0.00000000      0.00000000       1       0       0       0       2
 H              -0.21526000      0.84189000      0.00000000       1       0       0       0       2
 3
 energy=2.6976736060642352 cutoff=3.72000000 nneightol=1.20000000 pbc="T T T" Lattice="15.00000000       0.00000000       0.00000000       0.00000000      15.00000000       0.00000000       0.00000000       0.00000000      15.00000000" Properties=species:S:1:pos:R:3:Z:I:1:map_shift:I:3:n_neighb:I:1
 O               0.00000000      0.00000000      0.00000000       8       0       0       0       2
 H               0.72414000      0.00000000      0.00000000       1       0       0       0       2
 H              -0.22124000      0.86526000      0.00000000       1       0       0       0       2
 3
 energy=2.6224844548332840 cutoff=3.72000000 nneightol=1.20000000 pbc="T T T" Lattice="15.00000000       0.00000000       0.00000000       0.00000000      15.00000000       0.00000000       0.00000000       0.00000000      15.00000000" Properties=species:S:1:pos:R:3:Z:I:1:map_shift:I:3:n_neighb:I:1
 O               0.00000000      0.00000000      0.00000000       8       0       0       0       2
 H               0.72414000      0.00000000      0.00000000       1       0       0       0       2
 H              -0.22722000      0.88865000      0.00000000       1       0       0       0       2
 3
 energy=2.5875844724335408 cutoff=3.72000000 nneightol=1.20000000 pbc="T T T" Lattice="15.00000000       0.00000000       0.00000000       0.00000000      15.00000000       0.00000000       0.00000000       0.00000000      15.00000000" Properties=species:S:1:pos:R:3:Z:I:1:map_shift:I:3:n_neighb:I:1
 O               0.00000000      0.00000000      0.00000000       8       0       0       0       2
 H               0.72414000      0.00000000      0.00000000       1       0       0       0       2
 H              -0.23319000      0.91204000      0.00000000       1       0       0       0       2
 3
 energy=2.5864607077015549 cutoff=3.72000000 nneightol=1.20000000 pbc="T T T" Lattice="15.00000000       0.00000000       0.00000000       0.00000000      15.00000000       0.00000000       0.00000000       0.00000000      15.00000000" Properties=species:S:1:pos:R:3:Z:I:1:map_shift:I:3:n_neighb:I:1
 O               0.00000000      0.00000000      0.00000000       8       0       0       0       2
 H               0.72414000      0.00000000      0.00000000       1       0       0       0       2
 H              -0.23917000      0.93543000      0.00000000       1       0       0       0       2
 3
 energy=2.6135594606796744 cutoff=3.72000000 nneightol=1.20000000 pbc="T T T" Lattice="15.00000000       0.00000000       0.00000000       0.00000000      15.00000000       0.00000000       0.00000000       0.00000000      15.00000000" Properties=species:S:1:pos:R:3:Z:I:1:map_shift:I:3:n_neighb:I:1
 O               0.00000000      0.00000000      0.00000000       8       0       0       0       2
 H               0.72414000      0.00000000      0.00000000       1       0       0       0       2
 H              -0.24515000      0.95881000      0.00000000       1       0       0       0       2
 3
 energy=2.6642577402556640 cutoff=3.72000000 nneightol=1.20000000 pbc="T T T" Lattice="15.00000000       0.00000000       0.00000000       0.00000000      15.00000000       0.00000000       0.00000000       0.00000000      15.00000000" Properties=species:S:1:pos:R:3:Z:I:1:map_shift:I:3:n_neighb:I:1
 O               0.00000000      0.00000000      0.00000000       8       0       0       0       2
 H               0.72414000      0.00000000      0.00000000       1       0       0       0       2
 H              -0.25113000      0.98219000      0.00000000       1       0       0       0       2
 3
 energy=2.7347811909293114 cutoff=3.72000000 nneightol=1.20000000 pbc="T T T" Lattice="15.00000000       0.00000000       0.00000000       0.00000000      15.00000000       0.00000000       0.00000000       0.00000000      15.00000000" Properties=species:S:1:pos:R:3:Z:I:1:map_shift:I:3:n_neighb:I:1
 O               0.00000000      0.00000000      0.00000000       8       0       0       0       2
 H               0.72414000      0.00000000      0.00000000       1       0       0       0       2
 H              -0.25711000      1.00558000      0.00000000       1       0       0       0       2
 3
 energy=2.8219527565397158 cutoff=3.72000000 nneightol=1.20000000 pbc="T T T" Lattice="15.00000000       0.00000000       0.00000000       0.00000000      15.00000000       0.00000000       0.00000000       0.00000000      15.00000000" Properties=species:S:1:pos:R:3:Z:I:1:map_shift:I:3:n_neighb:I:1
 O               0.00000000      0.00000000      0.00000000       8       0       0       0       2
 H               0.72414000      0.00000000      0.00000000       1       0       0       0       2
 H              -0.26309000      1.02897000      0.00000000       1       0       0       0       2
 3
 energy=2.9230936671756709 cutoff=3.72000000 nneightol=1.20000000 pbc="T T T" Lattice="15.00000000       0.00000000       0.00000000       0.00000000      15.00000000       0.00000000       0.00000000       0.00000000      15.00000000" Properties=species:S:1:pos:R:3:Z:I:1:map_shift:I:3:n_neighb:I:1
 O               0.00000000      0.00000000      0.00000000       8       0       0       0       2
 H               0.72414000      0.00000000      0.00000000       1       0       0       0       2
 H              -0.26907000      1.05236000      0.00000000       1       0       0       0       2
 3
 energy=3.0357662597279358 cutoff=3.72000000 nneightol=1.20000000 pbc="T T T" Lattice="15.00000000       0.00000000       0.00000000       0.00000000      15.00000000       0.00000000       0.00000000       0.00000000      15.00000000" Properties=species:S:1:pos:R:3:Z:I:1:map_shift:I:3:n_neighb:I:1
 O               0.00000000      0.00000000      0.00000000       8       0       0       0       2
 H               0.72414000      0.00000000      0.00000000       1       0       0       0       2
 H              -0.27505000      1.07573000      0.00000000       1       0       0       0       2
 3
 energy=3.1580424175955315 cutoff=3.72000000 nneightol=1.20000000 pbc="T T T" Lattice="15.00000000       0.00000000       0.00000000       0.00000000      15.00000000       0.00000000       0.00000000       0.00000000      15.00000000" Properties=species:S:1:pos:R:3:Z:I:1:map_shift:I:3:n_neighb:I:1
 O               0.00000000      0.00000000      0.00000000       8       0       0       0       2
 H               0.72414000      0.00000000      0.00000000       1       0       0       0       2
 H              -0.28103000      1.09912000      0.00000000       1       0       0       0       2
 3
 energy=3.2878991854109358 cutoff=3.72000000 nneightol=1.20000000 pbc="T T T" Lattice="15.00000000       0.00000000       0.00000000       0.00000000      15.00000000       0.00000000       0.00000000       0.00000000      15.00000000" Properties=species:S:1:pos:R:3:Z:I:1:map_shift:I:3:n_neighb:I:1
 O               0.00000000      0.00000000      0.00000000       8       0       0       0       2