 3
 energy=3.4728848902013212 cutoff=3.89000000 nneightol=1.20000000 pbc="T T T" Lattice="15.00000000       0.00000000       0.00000000       0.00000000      15.00000000       0.00000000       0.00000000       0.00000000      15.00000000" Properties=species:S:1:pos:R:3:Z:I:1:map_shift:I:3:n_neighb:I:1
 O               0.00000000      0.00000000      0.00000000       8       0       0       0       2
 H               0.70000000      0.00000000      0.00000000       1       0       0       0       2
 H              -0.17340000      0.67818000      0.00000000       1       0       0       0       2
 3
 energy=2.9605825969171278 cutoff=3.89000000 nneightol=1.20000000 pbc="T T T" Lattice="15.00000000       0.00000000       0.00000000       0.00000000      15.00000000       0.00000000       0.00000000       0.00000000      15.00000000" Properties=species:S:1:pos:R:3:Z:I:1:map_shift:I:3:n_neighb:I:1
 O               0.00000000      0.00000000      0.00000000       8       0       0       0       2
 H               0.70000000      0.00000000      0.00000000       1       0       0       0       2
 H              -0.17938000      0.70157000      0.00000000       1       0       0       0       2
 3
 energy=2.5594950012613111 cutoff=3.89000000 nneightol=1.20000000 pbc="T T T" Lattice="15.00000000       0.00000000       0.00000000       0.00000000      15.00000000       0.00000000       0.00000000       0.00000000      15.00000000" Properties=species:S:1:pos:R:3:Z:I:1:map_shift:I:3:n_neighb:I:1
 O               0.00000000      0.00000000      0.00000000       8       0       0       0       2
 H               0.70000000      0.00000000      0.00000000       1       0       0       0       2
 H              -0.18536000      0.72496000      0.00000000       1       0       0       0       2
 3
 energy=2.2559797121430023 cutoff=3.89000000 nneightol=1.20000000 pbc="T T T" Lattice="15.00000000       0.00000000       0.00000000       0.00000000      15.00000000       0.00000000       0.00000000       0.00000000      15.00000000" Properties=species:S:1:pos:R:3:Z:I:1:map_shift:I:3:n_neighb:I:1
 O               0.00000000      0.00000000      0.00000000       8       0       0       0       2
 H               0.70000000      0.00000000      0.00000000       1       0       0       0       2
 H              -0.19134000      0.74834000      0.00000000       1       0       0       0       2
 3
 energy=2.0354139653488232 cutoff=3.89000000 nneightol=1.20000000 pbc="T T T" Lattice="15.00000000       0.00000000       0.00000000       0.00000000      15.00000000       0.00000000       0.00000000       0.00000000      15.00000000" Properties=species:S:1:pos:R:3:Z:I:1:map_shift:I:3:n_neighb:I:1
 O               0.00000000      0.00000000      0.00000000       8       0       0       0       2
 H               0.70000000      0.00000000      0.00000000       1       0       0       0       2
 H              -0.19732000      0.77172000      0.00000000       1       0       0       0       2
 3
 energy=1.8832516102465888 cutoff=3.89000000 nneightol=1.20000000 pbc="T T T" Lattice="15.00000000       0.00000000       0.00000000       0.00000000      15.00000000       0.00000000       0.00000000       0.00000000      15.00000000" Properties=species:S:1:pos:R:3:Z:I:1:map_shift:I:3:n_neighb:I:1
 O               0.00000000      0.00000000      0.00000000       8       0       0       0       2
 H               0.70000000      0.00000000      0.00000000       1       0       0       0       2
 H              -0.20330000      0.79511000      0.00000000       1       0       0       0       2
 3
 energy=1.7856204794885642 cutoff=3.89000000 nneightol=1.20000000 pbc="T T T" Lattice="15.00000000       0.00000000       0.00000000       0.00000000      15.00000000       0.00000000       0.00000000       0.00000000      15.00000000" Properties=species:S:1:pos:R:3:Z:I:1:map_shift:I:3:n_neighb:I:1
 O               0.00000000      0.00000000      0.00000000       8       0       0       0       2
 H               0.70000000      0.00000000      0.00000000       1       0       0       0       2
 H              -0.20928000      0.81850000      0.00000000       1       0       0       0       2
 3
 energy=1.7295874216802218 cutoff=3.89000000 nneightol=1.20000000 pbc="T T T" Lattice="15.00000000       0.00000000       0.00000000       0.00000000      15.00000000       0.00000000       0.00000000       0.00000000      15.00000000" Properties=species:S:1:pos:R:3:Z:I:1:map_shift:I:3:n_neighb:I:1
 O               0.00000000      0.00000000      0.00000000       8       0       0       0       2
 H               0.70000000      0.00000000      0.00000000       1       0       0       0       2
 H              -0.21526000      0.84189000      0.00000000       1       0       0       0       2
 3
 energy=1.7036392313429545 cutoff=3.89000000 nneightol=1.20000000 pbc="T T T" Lattice="15.00000000       0.00000000       0.00000000       0.00000000      15.00000000       0.00000000       0.00000000       0.00000000      15.00000000" Properties=species:S:1:pos:R:3:Z:I:1:map_shift:I:3:n_neighb:I:1
 O               0.00000000      0.00000000      0.00000000       8       0       0       0       2
 H               0.70000000      0.00000000      0.00000000       1       0       0       0       2
 H              -0.22124000      0.86526000      0.00000000       1       0       0       0       2
 3
 energy=1.6978342141614888 cutoff=3.89000000 nneightol=1.20000000 pbc="T T T" Lattice="15.00000000       0.00000000       0.00000000       0.00000000      15.00000000       0.00000000       0.00000000       0.00000000      15.00000000" Properties=species:S:1:pos:R:3:Z:I:1:map_shift:I:3:n_neighb:I:1
 O               0.00000000      0.00000000      0.00000000       8       0       0       0       2
 H               0.70000000      0.00000000      0.00000000       1       0       0       0       2
 H              -0.22722000      0.88865000      0.00000000       1       0       0       0       2
 3
 energy=1.7039465229988338 cutoff=3.89000000 nneightol=1.20000000 pbc="T T T" Lattice="15.00000000       0.00000000       0.00000000       0.00000000      15.00000000       0.00000000       0.00000000       0.00000000      15.00000000" Properties=species:S:1:pos:R:3:Z:I:1:map_shift:I:3:n_neighb:I:1
 O               0.00000000      0.00000000      0.00000000       8       0       0       0       2
 H               0.70000000      0.00000000      0.00000000       1       0       0       0       2
 H              -0.23319000      0.91204000      0.00000000       1       0       0       0       2
 3
 energy=1.7152618339410495 cutoff=3.89000000 nneightol=1.20000000 pbc="T T T" Lattice="15.00000000       0.00000000       0.00000000       0.00000000      15.00000000       0.00000000       0.00000000       0.00000000      15.00000000" Properties=species:S:1:pos:R:3:Z:I:1:map_shift:I:3:n_neighb:I:1
 O               0.00000000      0.00000000      0.00000000       8       0       0       0       2
 H               0.70000000      0.00000000      0.00000000       1       0       0       0       2
 H              -0.23917000      0.93543000      0.00000000       1       0       0       0       2
 3
 energy=1.7263795718006776 cutoff=3.89000000 nneightol=1.20000000 pbc="T T T" Lattice="15.00000000       0.00000000       0.00000000       0.00000000      15.00000000       0.00000000       0.00000000       0.00000000      15.00000000" Properties=species:S:1:pos:R:3:Z:I:1:map_shift:I:3:n_neighb:I:1
 O               0.00000000      0.00000000      0.00000000       8       0       0       0       2
 H               0.70000000      0.00000000      0.00000000       1       0       0       0       2
 H              -0.24515000      0.95881000      0.00000000       1       0       0       0       2
 3
 energy=1.7329466792193315 cutoff=3.89000000 nneightol=1.20000000 pbc="T T T" Lattice="15.00000000       0.00000000       0.00000000       0.00000000      15.00000000       0.00000000       0.00000000       0.00000000      15.00000000" Properties=species:S:1:pos:R:3:Z:I:1:map_shift:I:3:n_neighb:I:1
 O               0.00000000      0.00000000      0.00000000       8       0       0       0       2
 H               0.70000000      0.00000000      0.00000000       1       0       0       0       2
 H              -0.25113000      0.98219000      0.00000000       1       0       0       0       2
 3
 energy=1.7313513011520740 cutoff=3.89000000 nneightol=1.20000000 pbc="T T T" Lattice="15.00000000       0.00000000       0.00000000       0.00000000      15.00000000       0.00000000       0.00000000       0.00000000      15.00000000" Properties=species:S:1:pos:R:3:Z:I:1:map_shift:I:3:n_neighb:I:1
 O               0.00000000      0.00000000      0.00000000       8       0       0       0       2
 H               0.70000000      0.00000000      0.00000000       1       0       0       0       2
 H              -0.25711000      1.00558000      0.00000000       1       0       0       0       2
 3
 energy=1.7184772231047276 cutoff=3.89000000 nneightol=1.20000000 pbc="T T T" Lattice="15.00000000       0.00000000       0.00000000       0.00000000      15.00000000       0.00000000       0.00000000       0.00000000      15.00000000" Properties=species:S:1:pos:R:3:Z:I:1:map_shift:I:3:n_neighb:I:1
 O               0.00000000      0.00000000      0.00000000       8       0       0       0       2
 H               0.70000000      0.00000000      0.00000000       1       0       0       0       2
 H              -0.26309000      1.02897000      0.00000000       1       0       0       0       2
 3
 energy=1.6915274138310394 cutoff=3.89000000 nneightol=1.20000000 pbc="T T T" Lattice="15.00000000       0.00000000       0.00000000       0.00000000      15.00000000       0.00000000       0.00000000       0.00000000      15.00000000" Properties=species:S:1:pos:R:3:Z:I:1:map_shift:I:3:n_neighb:I:1
 O               0.00000000      0.00000000      0.00000000       8       0       0       0       2
 H               0.70000000      0.00000000      0.00000000       1       0       0       0       2
 H              -0.26907000      1.05236000      0.00000000       1       0       0       0       2
 3
 energy=1.6479491706499658 cutoff=3.89000000 nneightol=1.20000000 pbc="T T T" Lattice="15.00000000       0.00000000       0.00000000       0.00000000      15.00000000       0.00000000       0.00000000       0.00000000      15.00000000" Properties=species:S:1:pos:R:3:Z:I:1:map_shift:I:3:n_neighb:I:1
 O               0.00000000      0.00000000      0.00000000       8       0       0       0       2
 H               0.70000000      0.00000000      0.00000000       1       0       0       0       2
 H              -0.27505000      1.07573000      0.00000000       1       0       0       0       2
 3
 energy=1.5852275772993352 cutoff=3.89000000 nneightol=1.20000000 pbc="T T T" Lattice="15.00000000       0.00000000       0.00000000       0.00000000      15.00000000       0.00000000       0.00000000       0.00000000      15.00000000" Properties=species:S:1:pos:R:3:Z:I:1:map_shift:I:3:n_neighb:I:1
 O               0.00000000      0.00000000      0.00000000       8       0       0       0       2
 H               0.70000000      0.00000000      0.00000000       1       0       0       0       2
 H              -0.28103000      1.09912000      0.00000000       1       0       0       0       2
 3
 energy=1.5010972258974533 cutoff=3.89000000 nneightol=1.20000000 pbc="T T T" Lattice="15.00000000       0.00000000       0.00000000       0.00000000      15.00000000       0.00000000       0.00000000       0.00000000      15.00000000" Properties=species:S:1:pos:R:3:Z:I:1:map_shift:I:3:n_neighb:I:1
 O               0.00000000      0.00000000      0.00000000       8       0       0       0       2
 H               0.70000000      0.00000000      0.00000000       1       0       0       0       2
 H              -0.28701000      1.12251000      0.00000000       1       0       0       0       2
 3
 energy=1.3934467039516960 cutoff=3.89000000 nneightol=1.20000000 pbc="T T T" Lattice="15.00000000       0.00000000       0.00000000       0.00000000      15.00000000       0.00000000       0.00000000       0.00000000      15.00000000" Properties=species:S:1:pos:R:3:Z:I:1:map_shift:I:3:n_neighb:I:1
 O               0.00000000      0.00000000      0.00000000       8       0       0       0       2
 H               0.70000000      0.00000000      0.00000000       1       0       0       0       2
 H              -0.29299000      1.14590000      0.00000000       1       0       0       0       2
 3
 energy=1.2604564632604465 cutoff=3.89000000 nneightol=1.20000000 pbc="T T T" Lattice="15.00000000       0.00000000       0.00000000       0.00000000      15.00000000       0.00000000       0.00000000       0.00000000      15.00000000" Properties=species:S:1:pos:R:3:Z:I:1:map_shift:I:3:n_neighb:I:1
 O               0.00000000      0.00000000      0.00000000       8       0       0       0       2
 H               0.70000000      0.00000000      0.00000000       1       0       0       0       2
 H              -0.29897000      1.16928000      0.00000000       1       0       0       0       2
 3
 energy=1.1005015577425610 cutoff=3.89000000 nneightol=1.20000000 pbc="T T T" Lattice="15.00000000       0.00000000       0.00000000       0.00000000      15.00000000       0.00000000       0.00000000       0.00000000      15.00000000" Properties=species:S:1:pos:R:3:Z:I:1:map_shift:I:3:n_neighb:I:1
 O               0.00000000      0.00000000      0.00000000       8       0       0       0       2
 H               0.70000000      0.00000000      0.00000000       1       0       0       0       2
 H              -0.30495000      1.19266000      0.00000000       1       0       0       0       2
 3
 energy=.91226671488730915 cutoff=3.89000000 nneightol=1.20000000 pbc="T T T" Lattice="15.00000000       0.00000000       0.00000000       0.00000000      15.00000000       0.00000000       0.00000000       0.00000000      15.00000000" Properties=species:S:1:pos:R:3:Z:I:1:map_shift:I:3:n_neighb:I:1
 O               0.00000000      0.00000000      0.00000000       8       0       0       0       2
 H               0.70000000      0.00000000      0.00000000       1       0       0       0       2
 H              -0.31093000      1.21605000      0.00000000       1       0       0       0       2
 3
 energy=.69499509983506869 cutoff=3.89000000 nneightol=1.20000000 pbc="T T T" Lattice="15.00000000       0.00000000       0.00000000       0.00000000      15.00000000       0.00000000       0.00000000       0.00000000      15.00000000" Properties=species:S:1:pos:R:3:Z:I:1:map_shift:I:3:n_neighb:I:1
 O               0.00000000      0.00000000      0.00000000       8       0       0       0       2
 H               0.70000000      0.00000000      0.00000000       1       0       0       0       2
 H              -0.31691000      1.23944000      0.00000000       1       0       0       0       2
 3
 energy=.44846484491576177 cutoff=3.89000000 nneightol=1.20000000 pbc="T T T" Lattice="15.00000000       0.00000000       0.00000000       0.00000000      15.00000000       0.00000000       0.00000000       0.00000000      15.00000000" Properties=species:S:1:pos:R:3:Z:I:1:map_shift:I:3:n_neighb:I:1
 O               0.00000000      0.00000000      0.00000000       8       0       0       0       2
 H               0.70000000      0.00000000      0.00000000       1       0       0       0       2
 H              -0.32289000      1.26282000      0.00000000       1       0       0       0       2
 3
 energy=.17271239456292875 cutoff=3.89000000 nneightol=1.20000000 pbc="T T T" Lattice="15.00000000       0.00000000       0.00000000       0.00000000      15.00000000       0.00000000       0.00000000       0.00000000      15.00000000" Properties=species:S:1:pos:R:3:Z:I:1:map_shift:I:3:n_neighb:I:1
 O               0.00000000      0.00000000      0.00000000       8       0       0       0       2
 H               0.70000000      0.00000000      0.00000000       1       0       0       0       2
 H              -0.32887000      1.28621000      0.00000000       1       0       0       0       2
 3
 energy=-.13113863446487528 cutoff=3.89000000 nneightol=1.20000000 pbc="T T T" Lattice="15.00000000       0.00000000       0.00000000       0.00000000      15.00000000       0.00000000       0.00000000       0.00000000      15.00000000" Properties=species:S:1:pos:R:3:Z:I:1:map_shift:I:3:n_neighb:I:1
 O               0.00000000      0.00000000      0.00000000       8       0       0       0       2
 H               0.70000000      0.00000000      0.00000000       1       0       0       0       2
 H              -0.33484000      1.30959000      0.00000000       1       0       0       0       2
 3
 energy=-.46182165189389224 cutoff=3.89000000 nneightol=1.20000000 pbc="T T T" Lattice="15.00000000       0.00000000       0.00000000       0.00000000      15.00000000       0.00000000       0.00000000       0.00000000      15.00000000" Properties=species:S:1:pos:R:3:Z:I:1:map_shift:I:3:n_neighb:I:1
 O               0.00000000      0.00000000      0.00000000       8       0       0       0       2
 H               0.70000000      0.00000000      0.00000000       1       0       0       0       2
 H              -0.34082000      1.33298000      0.00000000       1       0       0       0       2
 3
 energy=-.81687279519276501 cutoff=3.89000000 nneightol=1.20000000 pbc="T T T" Lattice="15.00000000       0.00000000       0.00000000       0.00000000      15.00000000       0.00000000       0.00000000       0.00000000      15.00000000" Properties=species:S:1:pos:R:3:Z:I:1:map_shift:I:3:n_neighb:I:1
 O               0.00000000      0.00000000      0.00000000       8       0       0       0       2
 H               0.70000000      0.00000000      0.00000000       1       0       0       0       2
 H              -0.34680000      1.35637000      0.00000000       1       0       0       0       2
 3
 energy=2.9606415919300986 cutoff=3.89000000 nneightol=1.20000000 pbc="T T T" Lattice="15.00000000       0.00000000       0.00000000       0.00000000      15.00000000       0.00000000       0.00000000       0.00000000      15.00000000" Properties=species:S:1:pos:R:3:Z:I:1:map_shift:I:3:n_neighb:I:1
 O               0.00000000      0.00000000      0.00000000       8       0       0       0       2
 H               0.72414000      0.00000000      0.00000000       1       0       0       0       2
 H              -0.17340000      0.67818000      0.00000000       1       0       0       0       2
 3
 energy=2.4471591052445447 cutoff=3.89000000 nneightol=1.20000000 pbc="T T T" Lattice="15.00000000       0.00000000       0.00000000       0.00000000      15.00000000       0.00000000       0.00000000       0.00000000      15.00000000" Properties=species:S:1:pos:R:3:Z:I:1:map_shift:I:3:n_neighb:I:1
 O               0.00000000      0.00000000      0.00000000       8       0       0       0       2
 H               0.72414000      0.00000000      0.00000000       1       0       0       0       2
 H              -0.17938000      0.70157000      0.00000000       1       0       0       0       2
 3
 energy=2.0466225481886013 cutoff=3.89000000 nneightol=1.20000000 pbc="T T T" Lattice="15.00000000       0.00000000       0.00000000       0.00000000      15.00000000       0.00000000       0.00000000       0.00000000      15.00000000" Properties=species:S:1:pos:R:3:Z:I:1:map_shift:I:3:n_neighb:I:1
 O               0.00000000      0.00000000      0.00000000       8       0       0       0       2
 H               0.72414000      0.00000000      0.00000000       1       0       0       0       2
 H              -0.18536000      0.72496000      0.00000000       1       0       0       0       2
 3
 energy=1.7446786617467680 cutoff=3.89000000 nneightol=1.20000000 pbc="T T T" Lattice="15.00000000       0.00000000       0.00000000       0.00000000      15.00000000       0.00000000       0.00000000       0.00000000      15.00000000" Properties=species:S:1:pos:R:3:Z:I:1:map_shift:I:3:n_neighb:I:1
 O               0.00000000      0.00000000      0.00000000       8       0       0       0       2
 H               0.72414000      0.00000000      0.00000000       1       0       0       0       2
 H              -0.19134000      0.74834000      0.00000000       1       0       0       0       2
 3
 energy=1.5261209102841207 cutoff=3.89000000 nneightol=1.20000000 pbc="T T T" Lattice="15.00000000       0.00000000       0.00000000       0.00000000      15.00000000       0.00000000       0.00000000       0.00000000      15.00000000" Properties=species:S:1:pos:R:3:Z:I:1:map_shift:I:3:n_neighb:I:1
 O               0.00000000      0.00000000      0.00000000       8       0       0       0       2
 H               0.72414000      0.00000000      0.00000000       1       0       0       0       2
 H              -0.19732000      0.77172000      0.00000000       1       0       0       0       2
 3
 energy=1.3759506953418708 cutoff=3.89000000 nneightol=1.20000000 pbc="T T T" Lattice="15.00000000       0.00000000       0.00000000       0.00000000      15.00000000       0.00000000       0.00000000       0.00000000      15.00000000" Properties=species:S:1:pos:R:3:Z:I:1:map_shift:I:3:n_neighb:I:1
 O               0.00000000      0.00000000      0.00000000       8       0       0       0       2
 H               0.72414000      0.00000000      0.00000000       1       0       0       0       2
 H              -0.20330000      0.79511000      0.00000000       1       0       0       0       2
 3
 energy=1.2799679663739312 cutoff=3.89000000 nneightol=1.20000000 pbc="T T T" Lattice="15.00000000       0.00000000       0.00000000       0.00000000      15.00000000       0.00000000       0.00000000       0.00000000      15.00000000" Properties=species:S:1:pos:R:3:Z:I:1:map_shift:I:3:n_neighb:I:1
 O               0.00000000      0.00000000      0.00000000       8       0       0       0       2
 H               0.72414000      0.00000000      0.00000000       1       0       0       0       2
 H              -0.20928000      0.81850000      0.00000000       1       0       0       0       2
 3
 energy=1.2250279264297887 cutoff=3.89000000 nneightol=1.20000000 pbc="T T T" Lattice="15.00000000       0.00000000       0.00000000       0.00000000      15.00000000       0.00000000       0.00000000       0.00000000      15.00000000" Properties=species:S:1:pos:R:3:Z:I:1:map_shift:I:3:n_neighb:I:1
 O               0.00000000      0.00000000      0.00000000       8       0       0       0       2
 H               0.72414000      0.00000000      0.00000000       1       0       0       0       2
 H              -0.21526000      0.84189000      0.00000000       1       0       0       0       2
 3
 energy=1.1995058459394130 cutoff=3.89000000 nneightol=1.20000000 pbc="T T T" Lattice="15.00000000       0.00000000       0.00000000       0.00000000      15.00000000       0.00000000       0.00000000       0.00000000      15.00000000" Properties=species:S:1:pos:R:3:Z:I:1:map_shift:I:3:n_neighb:I:1
 O               0.00000000      0.00000000      0.00000000       8       0       0       0       2
 H               0.72414000      0.00000000      0.00000000       1       0       0       0       2
 H              -0.22124000      0.86526000      0.00000000       1       0       0       0       2
 3
 energy=1.1934313421024996 cutoff=3.89000000 nneightol=1.20000000 pbc="T T T" Lattice="15.00000000       0.00000000       0.00000000       0.00000000      15.00000000       0.00000000       0.00000000       0.00000000      15.00000000" Properties=species:S:1:pos:R:3:Z:I:1:map_shift:I:3:n_neighb:I:1
 O               0.00000000      0.00000000      0.00000000       8       0       0       0       2
 H               0.72414000      0.00000000      0.00000000       1       0       0       0       2
 H              -0.22722000      0.88865000      0.00000000       1       0       0       0       2
 3
 energy=1.1986118169012983 cutoff=3.89000000 nneightol=1.20000000 pbc="T T T" Lattice="15.00000000       0.00000000       0.00000000       0.00000000      15.00000000       0.00000000       0.00000000       0.00000000      15.00000000" Properties=species:S:1:pos:R:3:Z:I:1:map_shift:I:3:n_neighb:I:1
 O               0.00000000      0.00000000      0.00000000       8       0       0       0       2
 H               0.72414000      0.00000000      0.00000000       1       0       0       0       2
 H              -0.23319000      0.91204000      0.00000000       1       0       0       0       2
 3
 energy=1.2084098447699958 cutoff=3.89000000 nneightol=1.20000000 pbc="T T T" Lattice="15.00000000       0.00000000       0.00000000       0.00000000      15.00000000       0.00000000       0.00000000       0.00000000      15.00000000" Properties=species:S:1:pos:R:3:Z:I:1:map_shift:I:3:n_neighb:I:1
 O               0.00000000      0.00000000      0.00000000       8       0       0       0       2
 H               0.72414000      0.00000000      0.00000000       1       0       0       0       2
 H              -0.23917000      0.93543000      0.00000000       1       0       0       0       2
 3
 energy=1.2175283738689089 cutoff=3.89000000 nneightol=1.20000000 pbc="T T T" Lattice="15.00000000       0.00000000       0.00000000       0.00000000      15.00000000       0.00000000       0.00000000       0.00000000      15.00000000" Properties=species:S:1:pos:R:3:Z:I:1:map_shift:I:3:n_neighb:I:1
 O               0.00000000      0.00000000      0.00000000       8       0       0       0       2
 H               0.72414000      0.00000000      0.00000000       1       0       0       0       2
 H              -0.24515000      0.95881000      0.00000000       1       0       0       0       2
 3
 energy=1.2217250449695882 cutoff=3.89000000 nneightol=1.20000000 pbc="T T T" Lattice="15.00000000       0.00000000       0.00000000       0.00000000      15.00000000       0.00000000       0.00000000       0.00000000      15.00000000" Properties=species:S:1:pos:R:3:Z:I:1:map_shift:I:3:n_neighb:I:1
 O               0.00000000      0.00000000      0.00000000       8       0       0       0       2
 H               0.72414000      0.00000000      0.00000000       1       0       0       0       2
 H              -0.25113000      0.98219000      0.00000000       1       0       0       0       2
 3
 energy=1.2174931116531198 cutoff=3.89000000 nneightol=1.20000000 pbc="T T T" Lattice="15.00000000       0.00000000       0.00000000       0.00000000      15.00000000       0.00000000       0.00000000       0.00000000      15.00000000" Properties=species:S:1:pos:R:3:Z:I:1:map_shift:I:3:n_neighb:I:1
 O               0.00000000      0.00000000      0.00000000       8       0       0       0       2
 H               0.72414000      0.00000000      0.00000000       1       0       0       0       2
 H              -0.25711000      1.00558000      0.00000000       1       0       0       0       2
 3
 energy=1.2018084693835505 cutoff=3.89000000 nneightol=1.20000000 pbc="T T T" Lattice="15.00000000       0.00000000       0.00000000       0.00000000      15.00000000       0.00000000       0.00000000       0.00000000      15.00000000" Properties=species:S:1:pos:R:3:Z:I:1:map_shift:I:3:n_neighb:I:1
 O               0.00000000      0.00000000      0.00000000       8       0       0       0       2
 H               0.72414000      0.00000000      0.00000000       1       0       0       0       2
 H              -0.26309000      1.02897000      0.00000000       1       0       0       0       2
 3
 energy=1.1719447067716686 cutoff=3.89000000 nneightol=1.20000000 pbc="T T T" Lattice="15.00000000       0.00000000       0.00000000       0.00000000      15.00000000       0.00000000       0.00000000       0.00000000      15.00000000" Properties=species:S:1:pos:R:3:Z:I:1:map_shift:I:3:n_neighb:I:1
 O               0.00000000      0.00000000      0.00000000       8       0       0       0       2
 H               0.72414000      0.00000000      0.00000000       1       0       0       0       2
 H              -0.26907000      1.05236000      0.00000000       1       0       0       0       2
 3
 energy=1.1254001432851268 cutoff=3.89000000 nneightol=1.20000000 pbc="T T T" Lattice="15.00000000       0.00000000       0.00000000       0.00000000      15.00000000       0.00000000       0.00000000       0.00000000      15.00000000" Properties=species:S:1:pos:R:3:Z:I:1:map_shift:I:3:n_neighb:I:1
 O               0.00000000      0.00000000      0.00000000       8       0       0       0       2
 H               0.72414000      0.00000000      0.00000000       1       0       0       0       2
 H              -0.27505000      1.07573000      0.00000000       1       0       0       0       2
 3
 energy=1.0596845498059153 cutoff=3.89000000 nneightol=1.20000000 pbc="T T T" Lattice="15.00000000       0.00000000       0.00000000       0.00000000      15.00000000       0.00000000       0.00000000       0.00000000      15.00000000" Properties=species:S:1:pos:R:3:Z:I:1:map_shift:I:3:n_neighb:I:1
 O               0.00000000      0.00000000      0.00000000       8       0       0       0       2
 H               0.72414000      0.00000000      0.00000000       1       0       0       0       2
 H              -0.28103000      1.09912000      0.00000000       1       0       0       0       2
 3
 energy=.97254983457330013 cutoff=3.89000000 nneightol=1.20000000 pbc="T T T" Lattice="15.00000000       0.00000000       0.00000000       0.00000000      15.00000000       0.00000000       0.00000000       0.00000000      15.00000000" Properties=species:S:1:pos:R:3:Z:I:1:map_shift:I:3:n_neighb:I:1
 O               0.00000000      0.00000000      0.00000000       8       0       0       0       2