       3
Lattice="15.0 0.0 0.0 0.0 15.0 0.0 0.0 0.0 15.0" Properties=species:S:1:pos:R:3:forces:R:3 energy=        1.8223321392 pbc="T T T"
       O    -0.0185660400    -0.0311746600     0.0000000000      4.979794606      7.396468528     -0.000000000
       H     1.0969834700     0.2197604000     0.0000000000     -4.345149013     -1.983090182     -0.000000000
       H    -0.0810072300     1.2039512900     0.0000000000     -0.634645593     -5.413378346     -0.000000000
       3
Lattice="15.0 0.0 0.0 0.0 15.0 0.0 0.0 0.0 15.0" Properties=species:S:1:pos:R:3:forces:R:3 energy=        2.9878099787 pbc="T T T"
       O    -0.0166484100     0.0009451500     0.0000000000      4.279497868    -25.111900789     -0.000000000
       H     0.9921301200     0.1763396700     0.0000000000     -1.071280051     -2.807456024     -0.000000000
       H    -0.0065896300     0.7376065000     0.0000000000     -3.208217817     27.919356813     -0.000000000
       3
Lattice="15.0 0.0 0.0 0.0 15.0 0.0 0.0 0.0 15.0" Properties=species:S:1:pos:R:3:forces:R:3 energy=        1.6028722077 pbc="T T T"
       O     0.0032242900     0.0022195500     0.0000000000      1.647818737      2.529129091     -0.000000000
       H     1.1282393100    -0.1782789500     0.0000000000     -5.067860639      2.147512924     -0.000000000
       H    -0.4581021000     1.0720021800     0.0000000000      3.420041902     -4.676642014     -0.000000000
       3
Lattice="15.0 0.0 0.0 0.0 15.0 0.0 0.0 0.0 15.0" Properties=species:S:1:pos:R:3:forces:R:3 energy=        3.7571924318 pbc="T T T"
       O     0.0074746200    -0.0194099900     0.0000000000    -30.801613874     -2.098257506     -0.000000000
       H     0.6974359600     0.1720231600     0.0000000000     32.639976025      5.641850280     -0.000000000
       H    -0.0947453200     1.0649731900     0.0000000000     -1.838362151     -3.543592775     -0.000000000
       3
Lattice="15.0 0.0 0.0 0.0 15.0 0.0 0.0 0.0 15.0" Properties=species:S:1:pos:R:3:forces:R:3 energy=        2.5953253854 pbc="T T T"
       O     0.0004374500     0.0274986500     0.0000000000     14.496040887    -22.376469420     -0.000000000
       H     1.0905953800    -0.1943564900     0.0000000000     -5.357046529      2.448057799     -0.000000000
       H    -0.3762297300     0.6868816300     0.0000000000     -9.138994306     19.928411621     -0.000000000
       3
Lattice="15.0 0.0 0.0 0.0 15.0 0.0 0.0 0.0 15.0" Properties=species:S:1:pos:R:3:forces:R:3 energy=        2.0070154377 pbc="T T T"
       O    -0.0041020400    -0.0375442200     0.0000000000     -2.260761073      6.120442642     -0.000000000
       H     0.8831057500     0.2276575900     0.0000000000      2.977859052     -0.749147310     -0.000000000
       H    -0.0966833500     1.2971428000     0.0000000000     -0.717097979     -5.371295333     -0.000000000
       3
Lattice="15.0 0.0 0.0 0.0 15.0 0.0 0.0 0.0 15.0" Properties=species:S:1:pos:R:3:forces:R:3 energy=        1.1338205185 pbc="T T T"
       O    -0.0024818800    -0.0122975200     0.0000000000      2.073844099      4.947264171     -0.000000000
       H     1.0695027700    -0.0166027500     0.0000000000     -3.950497604      0.482758888     -0.000000000
       H    -0.3088000500     1.1407214400     0.0000000000      1.876653506     -5.430023110     -0.000000000
       3
Lattice="15.0 0.0 0.0 0.0 15.0 0.0 0.0 0.0 15.0" Properties=species:S:1:pos:R:3:forces:R:3 energy=        0.3275617339 pbc="T T T"
       O    -0.0086542300    -0.0083127800     0.0000000000      1.238134904     -0.868374870     -0.000000000
       H     0.9396023400     0.1477800500     0.0000000000      0.892956582     -1.726006484     -0.000000000
       H    -0.0809359300     0.9130964500     0.0000000000     -2.131091486      2.594381303     -0.000000000
       3
Lattice="15.0 0.0 0.0 0.0 15.0 0.0 0.0 0.0 15.0" Properties=species:S:1:pos:R:3:forces:R:3 energy=        1.6268826449 pbc="T T T"
       O    -0.0112730000    -0.0193645200     0.0000000000      4.045503048      5.888450917     -0.000000000
       H     1.1409314600     0.0585409000     0.0000000000     -5.166945397     -0.297512566     -0.000000000
       H    -0.2407052900     1.1777362700     0.0000000000      1.121442349     -5.590938352     -0.000000000
       3
Lattice="15.0 0.0 0.0 0.0 15.0 0.0 0.0 0.0 15.0" Properties=species:S:1:pos:R:3:forces:R:3 energy=        0.5228346426 pbc="T T T"
       O    -0.0088788200     0.0027681500     0.0000000000      5.295006295     -6.919665244     -0.000000000
       H     1.0384588000     0.0388677200     0.0000000000     -3.357787495     -0.491486604     -0.000000000
       H    -0.1762309500     0.8461472200     0.0000000000     -1.937218749      7.411151848     -0.000000000
       3
Lattice="15.0 0.0 0.0 0.0 15.0 0.0 0.0 0.0 15.0" Properties=species:S:1:pos:R:3:forces:R:3 energy=        2.4263665890 pbc="T T T"
       O    -0.0308247000    -0.0080363500     0.0000000000      5.611946485    -10.962368718     -0.000000000
       H     1.1530971200     0.2543540900     0.0000000000     -3.931687867     -3.067049274     -0.000000000
       H     0.0574335000     0.8021353800     0.0000000000     -1.680258669     14.029417993     -0.000000000
       3
Lattice="15.0 0.0 0.0 0.0 15.0 0.0 0.0 0.0 15.0" Properties=species:S:1:pos:R:3:forces:R:3 energy=        2.0323098170 pbc="T T T"
       O    -0.0130016600     0.0056411200     0.0000000000      7.507086900    -20.763308244     -0.000000000
       H     1.0393285100     0.0799496400     0.0000000000     -3.257137552     -1.213855759     -0.000000000
       H    -0.1116670700     0.7594689000     0.0000000000     -4.249949348     21.977164003     -0.000000000
       3
Lattice="15.0 0.0 0.0 0.0 15.0 0.0 0.0 0.0 15.0" Properties=species:S:1:pos:R:3:forces:R:3 energy=        4.2031462313 pbc="T T T"
       O     0.0065402500     0.0319104800     0.0000000000     21.579931977    -36.163987629     -0.000000000
       H     0.9771315700    -0.1953617000     0.0000000000     -2.540958022      1.992406270     -0.000000000
       H    -0.3596219200     0.6178673300     0.0000000000    -19.038973955     34.171581359     -0.000000000
       3
Lattice="15.0 0.0 0.0 0.0 15.0 0.0 0.0 0.0 15.0" Properties=species:S:1:pos:R:3:forces:R:3 energy=        1.8136432416 pbc="T T T"
       O    -0.0234482800    -0.0026905600     0.0000000000      5.453910470      0.647420897     -0.000000000
       H     1.3256637500     0.0126006700     0.0000000000     -6.005621903      0.194890020     -0.000000000
       H    -0.2322084700     0.9590492500     0.0000000000      0.551711433     -0.842310917     -0.000000000
       3
Lattice="15.0 0.0 0.0 0.0 15.0 0.0 0.0 0.0 15.0" Properties=species:S:1:pos:R:3:forces:R:3 energy=        0.9747788273 pbc="T T T"
       O    -0.0221853500    -0.0175726600     0.0000000000      5.818685954      3.842571539     -0.000000000
       H     1.1041611000     0.2159315400     0.0000000000     -4.163394868     -2.357940693     -0.000000000
       H    -0.0307440100     0.9919062600     0.0000000000     -1.655291086     -1.484630845     -0.000000000
       3
Lattice="15.0 0.0 0.0 0.0 15.0 0.0 0.0 0.0 15.0" Properties=species:S:1:pos:R:3:forces:R:3 energy=        3.6057331553 pbc="T T T"
       O    -0.0132732800     0.0151763800     0.0000000000     13.801792518    -32.169289552     -0.000000000
       H     1.1297021800    -0.0169257200     0.0000000000     -5.552590175      0.317583841     -0.000000000
       H    -0.1977326700     0.7050134400     0.0000000000     -8.249202342     31.851705763     -0.000000000
       3
Lattice="15.0 0.0 0.0 0.0 15.0 0.0 0.0 0.0 15.0" Properties=species:S:1:pos:R:3:forces:R:3 energy=        0.2429073134 pbc="T T T"
       O     0.0055676900    -0.0029294400     0.0000000000     -4.272887045      3.048838656     -0.000000000
       H     0.9155617300    -0.0257854200     0.0000000000      3.031106058      0.249586718     -0.000000000
       H    -0.2826118800     1.0012252000     0.0000000000      1.241780935     -3.298425374     -0.000000000
       3
Lattice="15.0 0.0 0.0 0.0 15.0 0.0 0.0 0.0 15.0" Properties=species:S:1:pos:R:3:forces:R:3 energy=        2.0315979290 pbc="T T T"
       O     0.0165536400    -0.0082949100     0.0000000000     -4.802133711      4.116551609     -0.000000000
       H     0.9423985800    -0.1651091100     0.0000000000      1.429985981      1.316235850     -0.000000000
       H    -0.4838072000     1.2257039500     0.0000000000      3.372147781     -5.432787459     -0.000000000
       3
Lattice="15.0 0.0 0.0 0.0 15.0 0.0 0.0 0.0 15.0" Properties=species:S:1:pos:R:3:forces:R:3 energy=        1.8885809251 pbc="T T T"
       O    -0.0167605900    -0.0359515900     0.0000000000      4.211794931      7.646909469     -0.000000000
       H     1.0286174200     0.2656499500     0.0000000000     -3.099945989     -2.368800267     -0.000000000
       H    -0.0412936800     1.2338746200     0.0000000000     -1.111848942     -5.278109151     -0.000000000
       3
Lattice="15.0 0.0 0.0 0.0 15.0 0.0 0.0 0.0 15.0" Properties=species:S:1:pos:R:3:forces:R:3 energy=        1.6118217849 pbc="T T T"
       O    -0.0250386200    -0.0027351600     0.0000000000      7.165654163     -6.899915151     -0.000000000
       H     1.2114725600     0.1210126000     0.0000000000     -5.538379887     -1.232749006     -0.000000000
       H    -0.0927747700     0.8513440800     0.0000000000     -1.627274276      8.132664157     -0.000000000
       3
Lattice="15.0 0.0 0.0 0.0 15.0 0.0 0.0 0.0 15.0" Properties=species:S:1:pos:R:3:forces:R:3 energy=        1.8595428742 pbc="T T T"
       O     0.0280438700     0.0171197900     0.0000000000    -18.984756049      6.402644744     -0.000000000
       H     0.7712395700    -0.2538870300     0.0000000000     15.534760009     -3.533754289     -0.000000000
       H    -0.4950092700     0.9111315700     0.0000000000      3.449996039     -2.868890506     -0.000000000
       3
Lattice="15.0 0.0 0.0 0.0 15.0 0.0 0.0 0.0 15.0" Properties=species:S:1:pos:R:3:forces:R:3 energy=        2.3872243708 pbc="T T T"
       O    -0.0110043000     0.0176243900     0.0000000000     11.481896199    -18.599486548     -0.000000000
       H     1.1882456900    -0.0980626200     0.0000000000     -6.186031206      1.407010438     -0.000000000
       H    -0.2922886100     0.7472993300     0.0000000000     -5.295864941     17.192476059     -0.000000000
       3
Lattice="15.0 0.0 0.0 0.0 15.0 0.0 0.0 0.0 15.0" Properties=species:S:1:pos:R:3:forces:R:3 energy=        2.2493096378 pbc="T T T"
       O    -0.0248985800    -0.0334672400     0.0000000000      5.764210320      7.555051263     -0.000000000
       H     1.1563378500     0.2589364900     0.0000000000     -4.818882862     -2.248133659     -0.000000000
       H    -0.0398584600     1.2011601400     0.0000000000     -0.945327459     -5.306917656     -0.000000000
       3
Lattice="15.0 0.0 0.0 0.0 15.0 0.0 0.0 0.0 15.0" Properties=species:S:1:pos:R:3:forces:R:3 energy=        1.6641681921 pbc="T T T"
       O    -0.0106620400    -0.0346284000     0.0000000000      2.038902533      7.201559173     -0.000000000
       H     0.9639339400     0.2365502900     0.0000000000     -1.142463338     -1.837418247     -0.000000000
       H    -0.0733994300     1.2419741500     0.0000000000     -0.896439195     -5.364140926     -0.000000000
       3
Lattice="15.0 0.0 0.0 0.0 15.0 0.0 0.0 0.0 15.0" Properties=species:S:1:pos:R:3:forces:R:3 energy=        0.7546404425 pbc="T T T"
       O     0.0057081800     0.0130999700     0.0000000000     -0.039940667    -10.816453454     -0.000000000
       H     0.9041806600    -0.0691875700     0.0000000000      3.269434270      0.204530273     -0.000000000
       H    -0.2734619100     0.7902289500     0.0000000000     -3.229493603     10.611923181     -0.000000000
       3
Lattice="15.0 0.0 0.0 0.0 15.0 0.0 0.0 0.0 15.0" Properties=species:S:1:pos:R:3:forces:R:3 energy=        0.5179825885 pbc="T T T"
       O     0.0112474200     0.0205038000     0.0000000000      1.463421857     -4.877521936     -0.000000000
       H     0.9729800800    -0.2142068800     0.0000000000     -1.778308043      2.010812189     -0.000000000
       H    -0.4301769600     0.8177450500     0.0000000000      0.314886187      2.866709799     -0.000000000
       3
Lattice="15.0 0.0 0.0 0.0 15.0 0.0 0.0 0.0 15.0" Properties=species:S:1:pos:R:3:forces:R:3 energy=        0.7430809641 pbc="T T T"
       O     0.0183101800     0.0154469700     0.0000000000     -9.938122188      0.226331181     -0.000000000
       H     0.8405447200    -0.1824751100     0.0000000000      8.498606717     -0.443221165     -0.000000000
       H    -0.4098318000     0.8662683100     0.0000000000      1.439515420      0.216889983     -0.000000000
       3
Lattice="15.0 0.0 0.0 0.0 15.0 0.0 0.0 0.0 15.0" Properties=species:S:1:pos:R:3:forces:R:3 energy=        3.0350698105 pbc="T T T"
       O     0.0008003100    -0.0278659500     0.0000000000    -17.972125305     -0.640825345     -0.000000000
       H     0.7133315100     0.2685786700     0.0000000000     21.027581676      3.875665920     -0.000000000
       H    -0.0047120600     1.1026194900     0.0000000000     -3.055456371     -3.234840523     -0.000000000
       3
Lattice="15.0 0.0 0.0 0.0 15.0 0.0 0.0 0.0 15.0" Properties=species:S:1:pos:R:3:forces:R:3 energy=        0.7799838322 pbc="T T T"
       O     0.0199451100     0.0181871300     0.0000000000     -4.502658518      0.915066331     -0.000000000
       H     0.9128486500    -0.2674038900     0.0000000000      1.103367691      1.566188179     -0.000000000
       H    -0.5080854800     0.9077094700     0.0000000000      3.399290827     -2.481254510     -0.000000000
       3
Lattice="15.0 0.0 0.0 0.0 15.0 0.0 0.0 0.0 15.0" Properties=species:S:1:pos:R:3:forces:R:3 energy=        0.5203792341 pbc="T T T"
       O     0.0003318600     0.0132808500     0.0000000000      4.702904303     -6.152072985     -0.000000000
       H     1.0507656000    -0.1173264800     0.0000000000     -4.048351883      1.480948767     -0.000000000
       H    -0.3347220300     0.8354979500     0.0000000000     -0.654552420      4.671124219     -0.000000000
       3
Lattice="15.0 0.0 0.0 0.0 15.0 0.0 0.0 0.0 15.0" Properties=species:S:1:pos:R:3:forces:R:3 energy=        1.3810472367 pbc="T T T"
       O    -0.0176462500    -0.0298737600     0.0000000000      4.348620415      7.216104014     -0.000000000
       H     1.0230860600     0.2617088800     0.0000000000     -2.791600949     -2.552572472     -0.000000000
       H    -0.0217064600     1.1413559000     0.0000000000     -1.557019415     -4.663531542     -0.000000000
       3
Lattice="15.0 0.0 0.0 0.0 15.0 0.0 0.0 0.0 15.0" Properties=species:S:1:pos:R:3:forces:R:3 energy=        2.4490545147 pbc="T T T"
       O     0.0013386400    -0.0259883400     0.0000000000    -15.850493169      1.357290628     -0.000000000
       H     0.7457363000     0.2308649500     0.0000000000     18.106708118      2.555901435     -0.000000000
       H    -0.0456614900     1.1105345600     0.0000000000     -2.256214949     -3.913192062     -0.000000000
       3
Lattice="15.0 0.0 0.0 0.0 15.0 0.0 0.0 0.0 15.0" Properties=species:S:1:pos:R:3:forces:R:3 energy=        0.5643151515 pbc="T T T"
       O    -0.0091214000     0.0029610000     0.0000000000      5.450037409     -7.331944093     -0.000000000
       H     1.0408041500     0.0394284000     0.0000000000     -3.427591847     -0.500821205     -0.000000000
       H    -0.1747263200     0.8425257700     0.0000000000     -2.022445562      7.832765297     -0.000000000
       3
Lattice="15.0 0.0 0.0 0.0 15.0 0.0 0.0 0.0 15.0" Properties=species:S:1:pos:R:3:forces:R:3 energy=        1.3745392637 pbc="T T T"
       O     0.0114432600    -0.0115988900     0.0000000000     -7.414114223      5.183679841     -0.000000000
       H     0.8974557000    -0.0568188900     0.0000000000      5.009417020      0.558223115     -0.000000000
       H    -0.3577560900     1.1698493600     0.0000000000      2.404697203     -5.741902956     -0.000000000
       3
Lattice="15.0 0.0 0.0 0.0 15.0 0.0 0.0 0.0 15.0" Properties=species:S:1:pos:R:3:forces:R:3 energy=        1.7469048004 pbc="T T T"
       O    -0.0275782300    -0.0045195300     0.0000000000      6.435141858     -1.730324242     -0.000000000
       H     1.3024562400     0.0872823100     0.0000000000     -5.851758224     -0.603215745     -0.000000000
       H    -0.1434538300     0.9133942500     0.0000000000     -0.583383634      2.333539987     -0.000000000
       3
Lattice="15.0 0.0 0.0 0.0 15.0 0.0 0.0 0.0 15.0" Properties=species:S:1:pos:R:3:forces:R:3 energy=        1.9601655754 pbc="T T T"
       O    -0.0101163900    -0.0370158600     0.0000000000      2.392041302      7.140674033     -0.000000000
       H     0.9859873700     0.2202236300     0.0000000000     -1.920904577     -1.645219865     -0.000000000
       H    -0.1041130000     1.2961917700     0.0000000000     -0.471136776     -5.495454168     -0.000000000
       3
Lattice="15.0 0.0 0.0 0.0 15.0 0.0 0.0 0.0 15.0" Properties=species:S:1:pos:R:3:forces:R:3 energy=        1.9786498264 pbc="T T T"
       O     0.0110068100    -0.0202536600     0.0000000000     -9.663976590      5.317916686     -0.000000000
       H     0.8692617200    -0.0022757400     0.0000000000      7.838982228      0.578676868     -0.000000000
       H    -0.3226337900     1.2526635200     0.0000000000      1.824994362     -5.896593554     -0.000000000
       3
Lattice="15.0 0.0 0.0 0.0 15.0 0.0 0.0 0.0 15.0" Properties=species:S:1:pos:R:3:forces:R:3 energy=        0.3319440433 pbc="T T T"
       O    -0.0036625400     0.0042935500     0.0000000000      3.713500505     -1.033010705     -0.000000000
       H     1.0720386800    -0.0562996900     0.0000000000     -4.333903311      0.826146898     -0.000000000
       H    -0.2925993500     0.9171061000     0.0000000000      0.620402755      0.206863807     -0.000000000
       3
Lattice="15.0 0.0 0.0 0.0 15.0 0.0 0.0 0.0 15.0" Properties=species:S:1:pos:R:3:forces:R:3 energy=        0.8993287099 pbc="T T T"
       O    -0.0108135800     0.0068173800     0.0000000000      6.651389631     -6.223569330     -0.000000000
       H     1.1428217500    -0.0310876200     0.0000000000     -5.571928686      0.565043638     -0.000000000
       H    -0.2498896800     0.8518390500     0.0000000000     -1.079460945      5.658525692     -0.000000000
       3
Lattice="15.0 0.0 0.0 0.0 15.0 0.0 0.0 0.0 15.0" Properties=species:S:1:pos:R:3:forces:R:3 energy=        4.3966340459 pbc="T T T"
       O    -0.0064440300     0.0199633500     0.0000000000     17.238893543    -40.937794300     -0.000000000
       H     1.0496879400    -0.0540400500     0.0000000000     -4.211133437      0.694178178     -0.000000000
       H    -0.2261045600     0.6661549000     0.0000000000    -13.027760106     40.243616173     -0.000000000
       3
Lattice="15.0 0.0 0.0 0.0 15.0 0.0 0.0 0.0 15.0" Properties=species:S:1:pos:R:3:forces:R:3 energy=        1.7860265856 pbc="T T T"
       O    -0.0280627200    -0.0085674200     0.0000000000      5.952082768      1.467568174     -0.000000000
       H     1.3138856200     0.0971328200     0.0000000000     -5.794867655     -0.643941318     -0.000000000
       H    -0.1471936600     0.9677867300     0.0000000000     -0.157215062     -0.823626907     -0.000000000
       3
Lattice="15.0 0.0 0.0 0.0 15.0 0.0 0.0 0.0 15.0" Properties=species:S:1:pos:R:3:forces:R:3 energy=        1.2581195664 pbc="T T T"
       O    -0.0041486700     0.0171021400     0.0000000000      7.140957215     -8.587203271     -0.000000000
       H     1.1479454700    -0.1496116300     0.0000000000     -5.795209097      1.965571602     -0.000000000
       H    -0.3607934400     0.8071369900     0.0000000000     -1.345748117      6.621631618     -0.000000000
       3
Lattice="15.0 0.0 0.0 0.0 15.0 0.0 0.0 0.0 15.0" Properties=species:S:1:pos:R:3:forces:R:3 energy=        1.3106027571 pbc="T T T"
       O    -0.0100982800    -0.0211166000     0.0000000000     -2.738202351      1.931108622     -0.000000000
       H     0.8353985900     0.2868378100     0.0000000000      6.618144377     -2.188006686     -0.000000000
       H     0.0461897700     0.9772434900     0.0000000000     -3.879942026      0.256898064     -0.000000000
       3
Lattice="15.0 0.0 0.0 0.0 15.0 0.0 0.0 0.0 15.0" Properties=species:S:1:pos:R:3:forces:R:3 energy=        2.4582876944 pbc="T T T"
       O    -0.0395560900    -0.0162292200     0.0000000000      5.946602202      2.590656852     -0.000000000
       H     1.3880563000     0.2053239900     0.0000000000     -5.089728087     -1.388042424     -0.000000000
       H    -0.0389533200     0.9811936400     0.0000000000     -0.856874166     -1.202614428     -0.000000000
       3
Lattice="15.0 0.0 0.0 0.0 15.0 0.0 0.0 0.0 15.0" Properties=species:S:1:pos:R:3:forces:R:3 energy=        0.5980659506 pbc="T T T"
       O     0.0088886600     0.0122022200     0.0000000000      0.389337142      0.031390356     -0.000000000
       H     1.0211393000    -0.1963760800     0.0000000000     -3.117639867      2.150920203     -0.000000000
       H    -0.4409002900     0.9316667200     0.0000000000      2.728302725     -2.182310559     -0.000000000
       3
Lattice="15.0 0.0 0.0 0.0 15.0 0.0 0.0 0.0 15.0" Properties=species:S:1:pos:R:3:forces:R:3 energy=        1.5160227508 pbc="T T T"
       O    -0.0102584800     0.0031192200     0.0000000000      4.030907197      1.232934536     -0.000000000
       H     1.2409402700    -0.1024670700     0.0000000000     -6.057368053      1.374281977     -0.000000000
       H    -0.3568197200     0.9819119200     0.0000000000      2.026460856     -2.607216513     -0.000000000
       3
Lattice="15.0 0.0 0.0 0.0 15.0 0.0 0.0 0.0 15.0" Properties=species:S:1:pos:R:3:forces:R:3 energy=        3.5555534356 pbc="T T T"
       O     0.0098099200    -0.0184574100     0.0000000000    -30.854898624      0.257042766     -0.000000000
       H     0.7146275400     0.1268917100     0.0000000000     31.589454196      4.322219133     -0.000000000
       H    -0.1490009500     1.0949867500     0.0000000000     -0.734555572     -4.579261899     -0.000000000
       3
Lattice="15.0 0.0 0.0 0.0 15.0 0.0 0.0 0.0 15.0" Properties=species:S:1:pos:R:3:forces:R:3 energy=        1.7490209292 pbc="T T T"
       O    -0.0323981700    -0.0134825400     0.0000000000      6.568354787      0.211339740     -0.000000000
       H     1.2477565100     0.2174011300     0.0000000000     -5.081074419     -2.036050201     -0.000000000
       H    -0.0122546700     0.9255240200     0.0000000000     -1.487280368      1.824710461     -0.000000000
       3
Lattice="15.0 0.0 0.0 0.0 15.0 0.0 0.0 0.0 15.0" Properties=species:S:1:pos:R:3:forces:R:3 energy=        0.4028104463 pbc="T T T"
       O     0.0019739900     0.0087735900     0.0000000000      1.015253373     -7.977750130     -0.000000000
       H     0.9359992500    -0.0342430200     0.0000000000      1.151900886      0.137256144     -0.000000000
       H    -0.2460152900     0.8239471600     0.0000000000     -2.167154259      7.840493986     -0.000000000
       3
Lattice="15.0 0.0 0.0 0.0 15.0 0.0 0.0 0.0 15.0" Properties=species:S:1:pos:R:3:forces:R:3 energy=        7.0101454808 pbc="T T T"
       O    -0.0147848800     0.0137296400     0.0000000000     13.090909926    -59.994960721     -0.000000000
       H     1.0501450600     0.0680399100     0.0000000000     -3.636643510     -1.208900676     -0.000000000
       H    -0.0941830800     0.6430078500     0.0000000000     -9.454266416     61.203861397     -0.000000000
       3
Lattice="15.0 0.0 0.0 0.0 15.0 0.0 0.0 0.0 15.0" Properties=species:S:1:pos:R:3:forces:R:3 energy=        4.3435844284 pbc="T T T"
       O    -0.0047195300     0.0278027600     0.0000000000     21.008126386    -34.900134739     -0.000000000
       H     1.1284851300    -0.1611824700     0.0000000000     -5.920198760      2.176765664     -0.000000000
       H    -0.3322736600     0.6488810200     0.0000000000    -15.087927626     32.723369076     -0.000000000
       3
Lattice="15.0 0.0 0.0 0.0 15.0 0.0 0.0 0.0 15.0" Properties=species:S:1:pos:R:3:forces:R:3 energy=        1.3453597325 pbc="T T T"
       O     0.0115943600    -0.0082698200     0.0000000000     -4.384237307      4.615146186     -0.000000000
       H     0.9420661300    -0.1038119800     0.0000000000      1.485542919      0.990903163     -0.000000000
       H    -0.4047659300     1.1640082000     0.0000000000      2.898694388     -5.606049349     -0.000000000
       3
Lattice="15.0 0.0 0.0 0.0 15.0 0.0 0.0 0.0 15.0" Properties=species:S:1:pos:R:3:forces:R:3 energy=        0.6345013380 pbc="T T T"
       O     0.0092257500    -0.0031809000     0.0000000000    -10.409819156      3.312891436     -0.000000000
       H     0.8522028500    -0.0208753800     0.0000000000      9.272854073      0.024428577     -0.000000000
       H    -0.2773090000     1.0003057000     0.0000000000      1.136965083     -3.337320013     -0.000000000
       3
Lattice="15.0 0.0 0.0 0.0 15.0 0.0 0.0 0.0 15.0" Properties=species:S:1:pos:R:3:forces:R:3 energy=        4.1880273457 pbc="T T T"
       O    -0.0058913800     0.0119869300     0.0000000000      7.559880363    -40.022691253     -0.000000000
       H     0.9361642000     0.0524365600     0.0000000000      1.139538707     -1.133649747     -0.000000000
       H    -0.1213488600     0.6862690100     0.0000000000     -8.699419070     41.156341000     -0.000000000
       3
Lattice="15.0 0.0 0.0 0.0 15.0 0.0 0.0 0.0 15.0" Properties=species:S:1:pos:R:3:forces:R:3 energy=        1.3120221737 pbc="T T T"
       O     0.0233229500     0.0178420600     0.0000000000    -15.258630393      2.602903434     -0.000000000
       H     0.7949553800    -0.2163981200     0.0000000000     13.317906252     -2.177055067     -0.000000000
       H    -0.4437995900     0.8621794000     0.0000000000      1.940724090     -0.425848367     -0.000000000
       3
Lattice="15.0 0.0 0.0 0.0 15.0 0.0 0.0 0.0 15.0" Properties=species:S:1:pos:R:3:forces:R:3 energy=        0.1318524334 pbc="T T T"
       O    -0.0051302400    -0.0003969200     0.0000000000      2.463363017     -2.756923230     -0.000000000
       H     0.9826911000     0.0459483400     0.0000000000     -1.240612111     -0.570587916     -0.000000000
       H    -0.1799555900     0.8892983600     0.0000000000     -1.222750906      3.327511147     -0.000000000
       3
Lattice="15.0 0.0 0.0 0.0 15.0 0.0 0.0 0.0 15.0" Properties=species:S:1:pos:R:3:forces:R:3 energy=        4.1906793865 pbc="T T T"
       O     0.0034764900    -0.0253530000     0.0000000000    -27.145770179     -5.047987288     -0.000000000
       H     0.6686824400     0.2623502200     0.0000000000     30.662001878      7.455143804     -0.000000000
       H    -0.0025361300     1.0689654800     0.0000000000     -3.516231699     -2.407156465     -0.000000000
       3
Lattice="15.0 0.0 0.0 0.0 15.0 0.0 0.0 0.0 15.0" Properties=species:S:1:pos:R:3:forces:R:3 energy=        2.3489077243 pbc="T T T"
       O     0.0213943400     0.0046935800     0.0000000000     -2.799836659      2.303475858     -0.000000000
       H     0.9834953700    -0.2976050000     0.0000000000     -1.589402371      2.574516950     -0.000000000
       H    -0.6017330100     1.1520637800     0.0000000000      4.389239031     -4.877992808     -0.000000000
       3
Lattice="15.0 0.0 0.0 0.0 15.0 0.0 0.0 0.0 15.0" Properties=species:S:1:pos:R:3:forces:R:3 energy=        2.8930529665 pbc="T T T"
       O    -0.0043550500     0.0224739500     0.0000000000     14.893686707    -26.660584992     -0.000000000
       H     1.0958180600    -0.1235166300     0.0000000000     -5.318833028      1.680976265     -0.000000000
       H    -0.3053901700     0.6957870200     0.0000000000     -9.574853679     24.979608727     -0.000000000
       3
Lattice="15.0 0.0 0.0 0.0 15.0 0.0 0.0 0.0 15.0" Properties=species:S:1:pos:R:3:forces:R:3 energy=        1.2230058742 pbc="T T T"
       O    -0.0093973600    -0.0086084200     0.0000000000     -1.704784023     -6.122981556     -0.000000000
       H     0.8704837000     0.2115422400     0.0000000000      5.412337872     -2.371197822     -0.000000000
       H    -0.0000215400     0.8540255500     0.0000000000     -3.707553849      8.494179378     -0.000000000
       3
Lattice="15.0 0.0 0.0 0.0 15.0 0.0 0.0 0.0 15.0" Properties=species:S:1:pos:R:3:forces:R:3 energy=        1.6421758792 pbc="T T T"
       O    -0.0087814700    -0.0252657000     0.0000000000      3.294021124      6.445367089     -0.000000000
       H     1.0738946200     0.0984854700     0.0000000000     -4.047205993     -0.677431135     -0.000000000
       H    -0.2132097400     1.2314472500     0.0000000000      0.753184869     -5.767935953     -0.000000000
       3
Lattice="15.0 0.0 0.0 0.0 15.0 0.0 0.0 0.0 15.0" Properties=species:S:1:pos:R:3:forces:R:3 energy=        1.1269671432 pbc="T T T"
       O     0.0091992400    -0.0103326700     0.0000000000    -12.383794105      4.660222633     -0.000000000
       H     0.8373197200     0.0135434800     0.0000000000     11.200403670      0.266638436     -0.000000000
       H    -0.2620042300     1.0793905600     0.0000000000      1.183390435     -4.926861069     -0.000000000
       3
Lattice="15.0 0.0 0.0 0.0 15.0 0.0 0.0 0.0 15.0" Properties=species:S:1:pos:R:3:forces:R:3 energy=        0.1849727678 pbc="T T T"
       O    -0.0021956100    -0.0036999500     0.0000000000      1.567502784      2.529078903     -0.000000000
       H     1.0145536400    -0.0045523200     0.0000000000     -2.472822830      0.200941937     -0.000000000
       H    -0.2583941700     0.9922210000     0.0000000000      0.905320046     -2.730020840     -0.000000000
       3
Lattice="15.0 0.0 0.0 0.0 15.0 0.0 0.0 0.0 15.0" Properties=species:S:1:pos:R:3:forces:R:3 energy=        4.1837813736 pbc="T T T"