       3
Lattice="15.0 0.0 0.0 0.0 15.0 0.0 0.0 0.0 15.0" Properties=species:S:1:pos:R:3:forces:R:3 energy=        2.0924718839 pbc="T T T"
       O    -0.0235582200     0.0033800400     0.0000000000      5.672329952     -2.205143148     -0.000000000
       H     1.3627538500    -0.0339741000     0.0000000000     -5.982884959      0.639673285     -0.000000000
       H    -0.2675550100     0.9092795200     0.0000000000      0.310555007      1.565469863     -0.000000000
       3
Lattice="15.0 0.0 0.0 0.0 15.0 0.0 0.0 0.0 15.0" Properties=species:S:1:pos:R:3:forces:R:3 energy=        2.0374292556 pbc="T T T"
       O     0.0200667900    -0.0047677600     0.0000000000     -7.892042057      4.552078332     -0.000000000
       H     0.8996014000    -0.1862862000     0.0000000000      4.238584450      0.892516358     -0.000000000
       H    -0.4967669400     1.1909024600     0.0000000000      3.653457607     -5.444594690     -0.000000000
       3
Lattice="15.0 0.0 0.0 0.0 15.0 0.0 0.0 0.0 15.0" Properties=species:S:1:pos:R:3:forces:R:3 energy=        1.4319225474 pbc="T T T"
       O     0.0026107200    -0.0168342800     0.0000000000     -0.014495475      5.235735911     -0.000000000
       H     1.0100102000    -0.0188712600     0.0000000000     -1.978121780      0.534600991     -0.000000000
       H    -0.3301307000     1.2149915800     0.0000000000      1.992617255     -5.770336954     -0.000000000
       3
Lattice="15.0 0.0 0.0 0.0 15.0 0.0 0.0 0.0 15.0" Properties=species:S:1:pos:R:3:forces:R:3 energy=        0.7311935559 pbc="T T T"
       O    -0.0011527800    -0.0146611300     0.0000000000     -6.728319697      2.921292493     -0.000000000
       H     0.8444709500     0.1492074800     0.0000000000      8.189069919     -0.485956673     -0.000000000
       H    -0.1048578700     1.0124215500     0.0000000000     -1.460750222     -2.435335820     -0.000000000
       3
Lattice="15.0 0.0 0.0 0.0 15.0 0.0 0.0 0.0 15.0" Properties=species:S:1:pos:R:3:forces:R:3 energy=        1.8196230906 pbc="T T T"
       O    -0.0042017700    -0.0351674000     0.0000000000     -1.912162822      6.281954585     -0.000000000
       H     0.8941460800     0.2128242500     0.0000000000      2.536391175     -0.828516119     -0.000000000
       H    -0.1061413500     1.2742544300     0.0000000000     -0.624228404     -5.453438466     -0.000000000
       3
Lattice="15.0 0.0 0.0 0.0 15.0 0.0 0.0 0.0 15.0" Properties=species:S:1:pos:R:3:forces:R:3 energy=        1.8794897698 pbc="T T T"
       O    -0.0181604800     0.0000484500     0.0000000000      4.586025240      1.390041561     -0.000000000
       H     1.3169633400    -0.0544406700     0.0000000000     -6.060849739      0.847869285     -0.000000000
       H    -0.3074310800     0.9826208700     0.0000000000      1.474824499     -2.237910794     -0.000000000
       3
Lattice="15.0 0.0 0.0 0.0 15.0 0.0 0.0 0.0 15.0" Properties=species:S:1:pos:R:3:forces:R:3 energy=        2.5047496748 pbc="T T T"
       O     0.0060322900    -0.0109147700     0.0000000000    -24.118114749     -1.587283319     -0.000000000
       H     0.7355945400     0.1333991700     0.0000000000     26.144934737      2.331608471     -0.000000000
       H    -0.1100140800     0.9687720200     0.0000000000     -2.026819988     -0.744325203     -0.000000000
       3
Lattice="15.0 0.0 0.0 0.0 15.0 0.0 0.0 0.0 15.0" Properties=species:S:1:pos:R:3:forces:R:3 energy=        1.6097698859 pbc="T T T"
       O    -0.0070089800    -0.0204429100     0.0000000000     -6.454335667      0.696244112     -0.000000000
       H     0.7954887500     0.2776334200     0.0000000000     10.469867505     -1.119115551     -0.000000000
       H     0.0370699200     0.9757558200     0.0000000000     -4.015531787      0.422871439     -0.000000000
       3
Lattice="15.0 0.0 0.0 0.0 15.0 0.0 0.0 0.0 15.0" Properties=species:S:1:pos:R:3:forces:R:3 energy=        0.9731428924 pbc="T T T"
       O     0.0141092800     0.0248094700     0.0000000000      1.677158535    -10.208135404     -0.000000000
       H     0.9044272300    -0.2098105500     0.0000000000      1.701861963      1.118064741     -0.000000000
       H    -0.4070437800     0.7450143500     0.0000000000     -3.379020497      9.090070664     -0.000000000
       3
Lattice="15.0 0.0 0.0 0.0 15.0 0.0 0.0 0.0 15.0" Properties=species:S:1:pos:R:3:forces:R:3 energy=        1.0905345477 pbc="T T T"
       O     0.0116703700    -0.0049770800     0.0000000000     -4.598867701      4.407244320     -0.000000000
       H     0.9375165500    -0.1115911900     0.0000000000      1.644113159      0.990897198     -0.000000000
       H    -0.4014228600     1.1195291300     0.0000000000      2.954754491     -5.398141519     -0.000000000
       3
Lattice="15.0 0.0 0.0 0.0 15.0 0.0 0.0 0.0 15.0" Properties=species:S:1:pos:R:3:forces:R:3 energy=        2.2044440352 pbc="T T T"
       O    -0.0066658400     0.0182300500     0.0000000000      3.997635460     -2.750930397     -0.000000000
       H     1.2946364900    -0.2360531400     0.0000000000     -5.952891843      2.529874197     -0.000000000
       H    -0.4675374700     0.8756789000     0.0000000000      1.955256383      0.221056201     -0.000000000
       3
Lattice="15.0 0.0 0.0 0.0 15.0 0.0 0.0 0.0 15.0" Properties=species:S:1:pos:R:3:forces:R:3 energy=        1.3500589675 pbc="T T T"
       O    -0.0087238800    -0.0310380500     0.0000000000     -0.102969131      6.578454033     -0.000000000
       H     0.9056578300     0.2466040800     0.0000000000      1.602291318     -1.689611216     -0.000000000
       H    -0.0458831000     1.1749386100     0.0000000000     -1.499322187     -4.888842817     -0.000000000
       3
Lattice="15.0 0.0 0.0 0.0 15.0 0.0 0.0 0.0 15.0" Properties=species:S:1:pos:R:3:forces:R:3 energy=        1.4720548056 pbc="T T T"
       O    -0.0236615100    -0.0064643700     0.0000000000      6.339594735     -7.296865384     -0.000000000
       H     1.1131228100     0.1921626400     0.0000000000     -4.152981844     -2.415699679     -0.000000000
       H    -0.0162789000     0.8393785700     0.0000000000     -2.186612839      9.712565063     -0.000000000
       3
Lattice="15.0 0.0 0.0 0.0 15.0 0.0 0.0 0.0 15.0" Properties=species:S:1:pos:R:3:forces:R:3 energy=        1.3882709753 pbc="T T T"
       O    -0.0126573700     0.0074828000     0.0000000000      8.226719114    -13.537054282     -0.000000000
       H     1.1111027000     0.0141691600     0.0000000000     -5.086313661     -0.095719902     -0.000000000
       H    -0.1889071100     0.7960211700     0.0000000000     -3.140405453     13.632774184     -0.000000000
       3
Lattice="15.0 0.0 0.0 0.0 15.0 0.0 0.0 0.0 15.0" Properties=species:S:1:pos:R:3:forces:R:3 energy=        0.2621786129 pbc="T T T"
       O     0.0069848800     0.0094718700     0.0000000000     -2.727694299     -4.216230446     -0.000000000
       H     0.9038751200    -0.0732522600     0.0000000000      3.474133104      0.292637958     -0.000000000
       H    -0.2934185500     0.8518743400     0.0000000000     -0.746438754      3.923592488     -0.000000000
       3
Lattice="15.0 0.0 0.0 0.0 15.0 0.0 0.0 0.0 15.0" Properties=species:S:1:pos:R:3:forces:R:3 energy=        2.0460435504 pbc="T T T"
       O    -0.0294781200    -0.0212459500     0.0000000000      5.941850441      5.674409358     -0.000000000
       H     1.2744744600     0.1851296900     0.0000000000     -5.461218937     -1.451466170     -0.000000000
       H    -0.0853166700     1.0810069100     0.0000000000     -0.480631505     -4.222943239     -0.000000000
       3
Lattice="15.0 0.0 0.0 0.0 15.0 0.0 0.0 0.0 15.0" Properties=species:S:1:pos:R:3:forces:R:3 energy=        1.2495918936 pbc="T T T"
       O    -0.0192086400    -0.0013374700     0.0000000000      6.923028094     -8.651125863     -0.000000000
       H     1.1198604300     0.1158988600     0.0000000000     -4.755722963     -1.420819326     -0.000000000
       H    -0.0936887600     0.8342751400     0.0000000000     -2.167305131     10.071945188     -0.000000000
       3
Lattice="15.0 0.0 0.0 0.0 15.0 0.0 0.0 0.0 15.0" Properties=species:S:1:pos:R:3:forces:R:3 energy=        1.4583372330 pbc="T T T"
       O    -0.0276244600    -0.0182908200     0.0000000000      6.320512718      4.160755527     -0.000000000
       H     1.1978726500     0.2124567200     0.0000000000     -5.055915648     -2.028036326     -0.000000000
       H    -0.0381331200     1.0067791700     0.0000000000     -1.264597070     -2.132719252     -0.000000000
       3
Lattice="15.0 0.0 0.0 0.0 15.0 0.0 0.0 0.0 15.0" Properties=species:S:1:pos:R:3:forces:R:3 energy=        1.1559574926 pbc="T T T"
       O    -0.0235135400    -0.0140970500     0.0000000000      5.595655608     -0.828942151     -0.000000000
       H     1.0620363800     0.2540594100     0.0000000000     -2.976773789     -3.142006274     -0.000000000
       H     0.0324609700     0.8986175300     0.0000000000     -2.618881819      3.970948374     -0.000000000
       3
Lattice="15.0 0.0 0.0 0.0 15.0 0.0 0.0 0.0 15.0" Properties=species:S:1:pos:R:3:forces:R:3 energy=        1.1298773546 pbc="T T T"
       O     0.0176384900     0.0025121600     0.0000000000    -12.214961045      4.689385796     -0.000000000
       H     0.8487127200    -0.1397825500     0.0000000000      9.157034563     -0.125297578     -0.000000000
       H    -0.4073383600     1.0288605200     0.0000000000      3.057926482     -4.564088218     -0.000000000
       3
Lattice="15.0 0.0 0.0 0.0 15.0 0.0 0.0 0.0 15.0" Properties=species:S:1:pos:R:3:forces:R:3 energy=        1.4289639595 pbc="T T T"
       O    -0.0020957100    -0.0287191200     0.0000000000     -2.905829512      6.119018353     -0.000000000
       H     0.8962223800     0.1649384800     0.0000000000      3.169676140     -0.548705144     -0.000000000
       H    -0.1416436500     1.2198014800     0.0000000000     -0.263846577     -5.570313209     -0.000000000
       3
Lattice="15.0 0.0 0.0 0.0 15.0 0.0 0.0 0.0 15.0" Properties=species:S:1:pos:R:3:forces:R:3 energy=        1.2662705221 pbc="T T T"
       O     0.0104670200     0.0225268300     0.0000000000      3.494623366    -14.580507373     -0.000000000
       H     0.9092558700    -0.1614803500     0.0000000000      1.903147605      0.894775999     -0.000000000
       H    -0.3540658200     0.7329109900     0.0000000000     -5.397770971     13.685731375     -0.000000000
       3
Lattice="15.0 0.0 0.0 0.0 15.0 0.0 0.0 0.0 15.0" Properties=species:S:1:pos:R:3:forces:R:3 energy=        7.3908162672 pbc="T T T"
       O    -0.0071488700     0.0213126200     0.0000000000     22.449776645    -63.886426334     -0.000000000
       H     1.0222646500    -0.0283103000     0.0000000000     -3.385374005      0.243730719     -0.000000000
       H    -0.1874943100     0.6190109900     0.0000000000    -19.064402640     63.642695616     -0.000000000
       3
Lattice="15.0 0.0 0.0 0.0 15.0 0.0 0.0 0.0 15.0" Properties=species:S:1:pos:R:3:forces:R:3 energy=        0.4208725480 pbc="T T T"
       O    -0.0132163700    -0.0123750200     0.0000000000      4.225855067      3.282722457     -0.000000000
       H     1.0462636600     0.1339789300     0.0000000000     -3.352895403     -1.465141411     -0.000000000
       H    -0.1151929700     0.9913687200     0.0000000000     -0.872959715     -1.817581097     -0.000000000
       3
Lattice="15.0 0.0 0.0 0.0 15.0 0.0 0.0 0.0 15.0" Properties=species:S:1:pos:R:3:forces:R:3 energy=        3.0300460172 pbc="T T T"
       O     0.0245000200     0.0056104900     0.0000000000    -31.521421643      8.456823340     -0.000000000
       H     0.7365048100    -0.1469746400     0.0000000000     28.553002607     -4.443477609     -0.000000000
       H    -0.4040280500     0.9868794800     0.0000000000      2.968419088     -4.013345731     -0.000000000
       3
Lattice="15.0 0.0 0.0 0.0 15.0 0.0 0.0 0.0 15.0" Properties=species:S:1:pos:R:3:forces:R:3 energy=        4.3377202849 pbc="T T T"
       O    -0.0112277600     0.0138877300     0.0000000000     12.962292949    -40.535162954     -0.000000000
       H     1.0488774000     0.0246882200     0.0000000000     -3.834576484     -0.464850272     -0.000000000
       H    -0.1493705800     0.6838507300     0.0000000000     -9.127716465     41.000013226     -0.000000000
       3
Lattice="15.0 0.0 0.0 0.0 15.0 0.0 0.0 0.0 15.0" Properties=species:S:1:pos:R:3:forces:R:3 energy=        1.3871781688 pbc="T T T"
       O    -0.0256836000    -0.0133117200     0.0000000000      5.805919238     -2.295946379     -0.000000000
       H     1.0838461900     0.2613927100     0.0000000000     -3.239837207     -3.217100777     -0.000000000
       H     0.0450916300     0.8788204500     0.0000000000     -2.566082031      5.513047156     -0.000000000
       3
Lattice="15.0 0.0 0.0 0.0 15.0 0.0 0.0 0.0 15.0" Properties=species:S:1:pos:R:3:forces:R:3 energy=        2.1672036208 pbc="T T T"
       O    -0.0376227800    -0.0148750000     0.0000000000      6.389960818     -0.690811163     -0.000000000
       H     1.2833985800     0.2584999000     0.0000000000     -4.768039118     -2.281431723     -0.000000000
       H     0.0350226600     0.9065245700     0.0000000000     -1.621921700      2.972242886     -0.000000000
       3
Lattice="15.0 0.0 0.0 0.0 15.0 0.0 0.0 0.0 15.0" Properties=species:S:1:pos:R:3:forces:R:3 energy=        1.4600373378 pbc="T T T"
       O    -0.0284585400    -0.0157491200     0.0000000000      6.427333928      2.832241625     -0.000000000
       H     1.2121170400     0.2036659600     0.0000000000     -5.135152303     -1.948048600     -0.000000000
       H    -0.0391403400     0.9752314700     0.0000000000     -1.292181626     -0.884192973     -0.000000000
       3
Lattice="15.0 0.0 0.0 0.0 15.0 0.0 0.0 0.0 15.0" Properties=species:S:1:pos:R:3:forces:R:3 energy=        1.7710666172 pbc="T T T"
       O    -0.0149624200    -0.0007257000     0.0000000000      4.731732862    -15.912724591     -0.000000000
       H     0.9960383900     0.1577915500     0.0000000000     -1.444224912     -2.370677070     -0.000000000
       H    -0.0372561700     0.7826723900     0.0000000000     -3.287507951     18.283401661     -0.000000000
       3
Lattice="15.0 0.0 0.0 0.0 15.0 0.0 0.0 0.0 15.0" Properties=species:S:1:pos:R:3:forces:R:3 energy=        0.8698943332 pbc="T T T"
       O    -0.0005368100     0.0147952600     0.0000000000      4.655849596     -4.103256891     -0.000000000
       H     1.1189073200    -0.1643064200     0.0000000000     -5.363570912      2.090191283     -0.000000000
       H    -0.3890784600     0.8584437100     0.0000000000      0.707721316      2.013065608     -0.000000000
       3
Lattice="15.0 0.0 0.0 0.0 15.0 0.0 0.0 0.0 15.0" Properties=species:S:1:pos:R:3:forces:R:3 energy=        0.9802390205 pbc="T T T"
       O     0.0106425300    -0.0076312300     0.0000000000     -7.261469608      4.887245647     -0.000000000
       H     0.8962966700    -0.0585527300     0.0000000000      4.943735022      0.486002902     -0.000000000
       H    -0.3438890500     1.1086135900     0.0000000000      2.317734586     -5.373248549     -0.000000000
       3
Lattice="15.0 0.0 0.0 0.0 15.0 0.0 0.0 0.0 15.0" Properties=species:S:1:pos:R:3:forces:R:3 energy=        0.3926569203 pbc="T T T"
       O     0.0097818900     0.0168450100     0.0000000000      0.816702769     -3.170330434     -0.000000000
       H     0.9813871000    -0.1911451200     0.0000000000     -1.882296411      1.882967469     -0.000000000
       H    -0.4153242500     0.8527509100     0.0000000000      1.065593643      1.287362965     -0.000000000
       3
Lattice="15.0 0.0 0.0 0.0 15.0 0.0 0.0 0.0 15.0" Properties=species:S:1:pos:R:3:forces:R:3 energy=        0.2738980153 pbc="T T T"
       O    -0.0099518200    -0.0108821900     0.0000000000      2.154994478      1.427168565     -0.000000000
       H     0.9647807600     0.1523160900     0.0000000000     -0.442385761     -1.737147953     -0.000000000
       H    -0.0855204600     0.9493388200     0.0000000000     -1.712608665      0.309979388     -0.000000000
       3
Lattice="15.0 0.0 0.0 0.0 15.0 0.0 0.0 0.0 15.0" Properties=species:S:1:pos:R:3:forces:R:3 energy=        1.7634472169 pbc="T T T"
       O     0.0200885000     0.0014342000     0.0000000000    -18.888720055      5.982127511     -0.000000000
       H     0.8025380700    -0.1307240800     0.0000000000     15.863865535     -1.228753972     -0.000000000
       H    -0.4000468500     1.0369099300     0.0000000000      3.024854521     -4.753373539     -0.000000000
       3
Lattice="15.0 0.0 0.0 0.0 15.0 0.0 0.0 0.0 15.0" Properties=species:S:1:pos:R:3:forces:R:3 energy=        1.0746288994 pbc="T T T"
       O     0.0043801100    -0.0145887300     0.0000000000    -11.159101449      3.956296884     -0.000000000
       H     0.8269151700     0.0944246300     0.0000000000     11.337777211      0.332077002     -0.000000000
       H    -0.1751143300     1.0660556200     0.0000000000     -0.178675762     -4.288373886     -0.000000000
       3
Lattice="15.0 0.0 0.0 0.0 15.0 0.0 0.0 0.0 15.0" Properties=species:S:1:pos:R:3:forces:R:3 energy=        1.4212700898 pbc="T T T"
       O    -0.0150523500    -0.0043541800     0.0000000000      3.611425810    -11.135895998     -0.000000000
       H     0.9730669200     0.1881709100     0.0000000000     -0.457297961     -2.718961440     -0.000000000
       H    -0.0128567400     0.8098794500     0.0000000000     -3.154127849     13.854857387     -0.000000000
       3
Lattice="15.0 0.0 0.0 0.0 15.0 0.0 0.0 0.0 15.0" Properties=species:S:1:pos:R:3:forces:R:3 energy=        1.4393126700 pbc="T T T"
       O    -0.0166970600     0.0041455100     0.0000000000      7.896914917    -11.720575572     -0.000000000
       H     1.1408676400     0.0513568200     0.0000000000     -5.341490422     -0.540565593     -0.000000000
       H    -0.1545582600     0.8117986200     0.0000000000     -2.555424444     12.261141165     -0.000000000
       3
Lattice="15.0 0.0 0.0 0.0 15.0 0.0 0.0 0.0 15.0" Properties=species:S:1:pos:R:3:forces:R:3 energy=        1.6468320793 pbc="T T T"
       O    -0.0186605400     0.0016160500     0.0000000000      5.325060654     -0.338739453     -0.000000000
       H     1.2957302000    -0.0367293900     0.0000000000     -6.126304195      0.682819090     -0.000000000
       H    -0.2782612200     0.9400305000     0.0000000000      0.801243592     -0.344079586     -0.000000000
       3
Lattice="15.0 0.0 0.0 0.0 15.0 0.0 0.0 0.0 15.0" Properties=species:S:1:pos:R:3:forces:R:3 energy=        1.9576631184 pbc="T T T"
       O    -0.0107544100    -0.0336805300     0.0000000000      3.316601282      7.029011279     -0.000000000
       H     1.0399146800     0.1757012200     0.0000000000     -3.346328391     -1.368448552     -0.000000000
       H    -0.1479156400     1.2877805300     0.0000000000      0.029727109     -5.660562727     -0.000000000
       3
Lattice="15.0 0.0 0.0 0.0 15.0 0.0 0.0 0.0 15.0" Properties=species:S:1:pos:R:3:forces:R:3 energy=        0.9017322154 pbc="T T T"
       O     0.0098771600     0.0244845600     0.0000000000      3.794325639     -5.917008842     -0.000000000
       H     1.0336345800    -0.2569627100     0.0000000000     -4.039147792      2.768341145     -0.000000000
       H    -0.4690855700     0.7973238600     0.0000000000      0.244822153      3.148667697     -0.000000000
       3
Lattice="15.0 0.0 0.0 0.0 15.0 0.0 0.0 0.0 15.0" Properties=species:S:1:pos:R:3:forces:R:3 energy=        1.0771681707 pbc="T T T"
       O    -0.0127535100    -0.0245659500     0.0000000000      3.584289037      6.714938847     -0.000000000
       H     1.0313308300     0.1782837600     0.0000000000     -3.034732549     -1.661909366     -0.000000000
       H    -0.1076047200     1.1405426900     0.0000000000     -0.549556437     -5.053029481     -0.000000000
       3
Lattice="15.0 0.0 0.0 0.0 15.0 0.0 0.0 0.0 15.0" Properties=species:S:1:pos:R:3:forces:R:3 energy=        0.7591188054 pbc="T T T"
       O     0.0055761300    -0.0113208200     0.0000000000     -8.487163966      4.469954996     -0.000000000
       H     0.8628123500     0.0415126900     0.0000000000      7.783233537      0.107393539     -0.000000000
       H    -0.2299947400     1.0671039600     0.0000000000      0.703930428     -4.577348483     -0.000000000
       3
Lattice="15.0 0.0 0.0 0.0 15.0 0.0 0.0 0.0 15.0" Properties=species:S:1:pos:R:3:forces:R:3 energy=        2.4411339687 pbc="T T T"
       O     0.0249409200    -0.0002424100     0.0000000000    -18.044838708      6.935576472     -0.000000000
       H     0.8075527300    -0.1891363300     0.0000000000     14.187588066     -1.448392620     -0.000000000
       H    -0.4820744300     1.1219315900     0.0000000000      3.857250693     -5.487183851     -0.000000000
       3
Lattice="15.0 0.0 0.0 0.0 15.0 0.0 0.0 0.0 15.0" Properties=species:S:1:pos:R:3:forces:R:3 energy=        1.6943614154 pbc="T T T"
       O    -0.0063497400    -0.0252922100     0.0000000000      2.704954937      6.255686281     -0.000000000
       H     1.0588189100     0.0803070600     0.0000000000     -3.678073258     -0.454263081     -0.000000000
       H    -0.2367277500     1.2500464100     0.0000000000      0.973118320     -5.801423148     -0.000000000
       3
Lattice="15.0 0.0 0.0 0.0 15.0 0.0 0.0 0.0 15.0" Properties=species:S:1:pos:R:3:forces:R:3 energy=        7.5412683252 pbc="T T T"
       O     0.0234597100     0.0013090500     0.0000000000    -68.909425470      7.401038152     -0.000000000
       H     0.6426221200    -0.0476980300     0.0000000000     67.818149220     -4.943838843     -0.000000000
       H    -0.2936323200     0.9558689500     0.0000000000      1.091276301     -2.457199258     -0.000000000
       3
Lattice="15.0 0.0 0.0 0.0 15.0 0.0 0.0 0.0 15.0" Properties=species:S:1:pos:R:3:forces:R:3 energy=        1.7178014176 pbc="T T T"
       O    -0.0160092900     0.0065785800     0.0000000000      8.645146759    -14.794605909     -0.000000000
       H     1.1428441900     0.0336792900     0.0000000000     -5.446402125     -0.317337169     -0.000000000
       H    -0.1674507900     0.7908616500     0.0000000000     -3.198744634     15.111943078     -0.000000000
       3
Lattice="15.0 0.0 0.0 0.0 15.0 0.0 0.0 0.0 15.0" Properties=species:S:1:pos:R:3:forces:R:3 energy=        2.6864796590 pbc="T T T"
       O     0.0176121500     0.0028555000     0.0000000000     -0.766871886      1.815387791     -0.000000000
       H     1.0503878300    -0.2971451500     0.0000000000     -3.450740991      2.933367993     -0.000000000
       H    -0.6085993700     1.1807758700     0.0000000000      4.217612877     -4.748755733     -0.000000000
       3
Lattice="15.0 0.0 0.0 0.0 15.0 0.0 0.0 0.0 15.0" Properties=species:S:1:pos:R:3:forces:R:3 energy=        4.1002881500 pbc="T T T"
       O     0.0212652500    -0.0007082900     0.0000000000    -41.418324657      6.977153852     -0.000000000
       H     0.7088926300    -0.0657575100     0.0000000000     39.489607214     -2.943698537     -0.000000000
       H    -0.3250755600     1.0059454300     0.0000000000      1.928717495     -4.033455315     -0.000000000
       3
Lattice="15.0 0.0 0.0 0.0 15.0 0.0 0.0 0.0 15.0" Properties=species:S:1:pos:R:3:forces:R:3 energy=        1.6835201353 pbc="T T T"
       O    -0.0071399000     0.0174243300     0.0000000000      6.331433021     -6.352093233     -0.000000000
       H     1.2286304100    -0.1764167700     0.0000000000     -6.176284201      2.174695153     -0.000000000
       H    -0.3940061900     0.8288292800     0.0000000000     -0.155148820      4.177398079     -0.000000000
       3
Lattice="15.0 0.0 0.0 0.0 15.0 0.0 0.0 0.0 15.0" Properties=species:S:1:pos:R:3:forces:R:3 energy=        0.8703248963 pbc="T T T"
       O     0.0230075000     0.0215112200     0.0000000000     -8.254380958      0.766366150     -0.000000000
       H     0.8451190000    -0.2630252800     0.0000000000      5.939015645     -0.121908091     -0.000000000
       H    -0.4889581600     0.8505748300     0.0000000000      2.315365262     -0.644458059     -0.000000000
       3
Lattice="15.0 0.0 0.0 0.0 15.0 0.0 0.0 0.0 15.0" Properties=species:S:1:pos:R:3:forces:R:3 energy=        1.9107605640 pbc="T T T"
       O     0.0035087500     0.0296465600     0.0000000000      8.749025907    -11.291504737     -0.000000000
       H     1.1356985800    -0.2739989600     0.0000000000     -5.821859520      3.149949084     -0.000000000
       H    -0.4700788500     0.7324358000     0.0000000000     -2.927166387      8.141555653     -0.000000000
       3
Lattice="15.0 0.0 0.0 0.0 15.0 0.0 0.0 0.0 15.0" Properties=species:S:1:pos:R:3:forces:R:3 energy=        1.2765697759 pbc="T T T"
       O     0.0024894100    -0.0139438600     0.0000000000      0.206981821      5.032048960     -0.000000000
       H     1.0185844600    -0.0331421000     0.0000000000     -2.333867392      0.652352583     -0.000000000
       H    -0.3367801900     1.1833893300     0.0000000000      2.126885570     -5.684401544     -0.000000000
       3
Lattice="15.0 0.0 0.0 0.0 15.0 0.0 0.0 0.0 15.0" Properties=species:S:1:pos:R:3:forces:R:3 energy=        5.5252256298 pbc="T T T"
       O     0.0042527800     0.0294155700     0.0000000000     24.283445811    -47.361056165     -0.000000000
       H     0.9603597800    -0.1462858000     0.0000000000     -1.493825577      1.411026041     -0.000000000
       H    -0.3065449800     0.6083871200     0.0000000000    -22.789620233     45.950030124     -0.000000000
       3
Lattice="15.0 0.0 0.0 0.0 15.0 0.0 0.0 0.0 15.0" Properties=species:S:1:pos:R:3:forces:R:3 energy=        1.9158235525 pbc="T T T"
       O     0.0087511000    -0.0212999000     0.0000000000    -12.525909997      5.070730094     -0.000000000
       H     0.8323329200     0.0574963700     0.0000000000     11.494946507      0.797510811     -0.000000000
       H    -0.2499036700     1.2094953800     0.0000000000      1.030963489     -5.868240906     -0.000000000
       3
Lattice="15.0 0.0 0.0 0.0 15.0 0.0 0.0 0.0 15.0" Properties=species:S:1:pos:R:3:forces:R:3 energy=        7.1435159749 pbc="T T T"
       O     0.0360223100     0.0133340700     0.0000000000    -59.217715457     24.074739550     -0.000000000
       H     0.6275981200    -0.2287435400     0.0000000000     55.432654176    -20.137027945     -0.000000000
       H    -0.4779906500     0.9460694600     0.0000000000      3.785061282     -3.937711605     -0.000000000
       3
Lattice="15.0 0.0 0.0 0.0 15.0 0.0 0.0 0.0 15.0" Properties=species:S:1:pos:R:3:forces:R:3 energy=        5.9813466072 pbc="T T T"
       O     0.0076602500     0.0412076700     0.0000000000     34.332815982    -41.480015839     -0.000000000
       H     1.0210327700    -0.2725502300     0.0000000000     -4.634149578      2.919575458     -0.000000000
       H    -0.4213005200     0.5475031200     0.0000000000    -29.698666404     38.560440380     -0.000000000
       3
Lattice="15.0 0.0 0.0 0.0 15.0 0.0 0.0 0.0 15.0" Properties=species:S:1:pos:R:3:forces:R:3 energy=        2.9564859672 pbc="T T T"
       O    -0.0070452100     0.0128113500     0.0000000000      9.967583085    -30.845425750     -0.000000000
       H     1.0003367400     0.0142270700     0.0000000000     -2.242561253     -0.393461862     -0.000000000
       H    -0.1672103400     0.7113947500     0.0000000000     -7.725021831     31.238887560     -0.000000000
       3
Lattice="15.0 0.0 0.0 0.0 15.0 0.0 0.0 0.0 15.0" Properties=species:S:1:pos:R:3:forces:R:3 energy=        1.2429123990 pbc="T T T"
       O    -0.0011818600    -0.0247496900     0.0000000000     -5.702269074      5.310465677     -0.000000000
       H     0.8546784200     0.1734284300     0.0000000000      6.506996666     -0.264908751     -0.000000000
       H    -0.1146030200     1.1483135300     0.0000000000     -0.804727593     -5.045556926     -0.000000000
       3
Lattice="15.0 0.0 0.0 0.0 15.0 0.0 0.0 0.0 15.0" Properties=species:S:1:pos:R:3:forces:R:3 energy=        1.2378505016 pbc="T T T"
       O    -0.0017459300     0.0182452500     0.0000000000      5.785208530     -6.069416659     -0.000000000
       H     1.1540252400    -0.1875460200     0.0000000000     -5.801445157      2.344132577     -0.000000000
       H    -0.4050074800     0.8269296900     0.0000000000      0.016236627      3.725284082     -0.000000000
       3
Lattice="15.0 0.0 0.0 0.0 15.0 0.0 0.0 0.0 15.0" Properties=species:S:1:pos:R:3:forces:R:3 energy=        0.9794001044 pbc="T T T"
       O    -0.0224403100    -0.0100888800     0.0000000000      6.269552246     -0.543943870     -0.000000000
       H     1.1323309400     0.1736179000     0.0000000000     -4.650423280     -1.967013323     -0.000000000
       H    -0.0548686400     0.9154472100     0.0000000000     -1.619128966      2.510957193     -0.000000000
       3
Lattice="15.0 0.0 0.0 0.0 15.0 0.0 0.0 0.0 15.0" Properties=species:S:1:pos:R:3:forces:R:3 energy=        4.0460759370 pbc="T T T"
       O     0.0095955100    -0.0105501700     0.0000000000    -36.857425432     -3.507249751     -0.000000000
       H     0.6914688900     0.1226017800     0.0000000000     38.772842141      4.595542955     -0.000000000
       H    -0.1224396900     0.9737829400     0.0000000000     -1.915416709     -1.088293203     -0.000000000
       3
Lattice="15.0 0.0 0.0 0.0 15.0 0.0 0.0 0.0 15.0" Properties=species:S:1:pos:R:3:forces:R:3 energy=        1.2757102499 pbc="T T T"
       O     0.0213931100     0.0145276400     0.0000000000     -4.361608812      2.135967791     -0.000000000
       H     0.9340872200    -0.2902102500     0.0000000000     -0.000532887      2.034308072     -0.000000000
       H    -0.5523053400     0.9885949000     0.0000000000      4.362141699     -4.170275863     -0.000000000
       3
Lattice="15.0 0.0 0.0 0.0 15.0 0.0 0.0 0.0 15.0" Properties=species:S:1:pos:R:3:forces:R:3 energy=        1.7056454683 pbc="T T T"