       3
Lattice="15.0 0.0 0.0 0.0 15.0 0.0 0.0 0.0 15.0" Properties=species:S:1:pos:R:3:forces:R:3 energy=       22.5528033047 pbc="T T T"
       O    -0.0021906200     0.0334257500     0.0000000000     75.315868610   -164.989732222     -0.000000000
       H     0.9623441600    -0.0810542700     0.0000000000     -1.653594929      0.855768488     -0.000000000
       H    -0.2062663000     0.4795107500     0.0000000000    -73.662273681    164.133963733     -0.000000000
