       3
Lattice="15.0 0.0 0.0 0.0 15.0 0.0 0.0 0.0 15.0" Properties=species:S:1:pos:R:3:forces:R:3 energy=        1.0824046046 pbc="T T T"
       O    -0.0101496400    -0.0182526500     0.0000000000      3.642944259      5.897712910     -0.000000000
       H     1.0842324600     0.0852211400     0.0000000000     -4.285930823     -0.648083933     -0.000000000
       H    -0.2018342500     1.1334093000     0.0000000000      0.642986513     -5.249628977     -0.000000000
