       3
Lattice="15.0 0.0 0.0 0.0 15.0 0.0 0.0 0.0 15.0" Properties=species:S:1:pos:R:3:forces:R:3 energy=        7.6885810736 pbc="T T T"
       O     0.0189676700     0.0089009000     0.0000000000    -62.078055602     -6.147349044     -0.000000000
       H     0.6439457900    -0.0172878400     0.0000000000     65.522362661     -3.418955456     -0.000000000
       H    -0.2236634100     0.8049701800     0.0000000000     -3.444307059      9.566304551     -0.000000000
