       3
Lattice="15.0 0.0 0.0 0.0 15.0 0.0 0.0 0.0 15.0" Properties=species:S:1:pos:R:3:forces:R:3 energy=        0.5330594216 pbc="T T T"
       O     0.0175955400     0.0174846200     0.0000000000     -5.059883839     -0.310701663     -0.000000000
       H     0.8933381100    -0.2210838100     0.0000000000      2.925365328      0.946667313     -0.000000000
       H    -0.4512843700     0.8725384200     0.0000000000      2.134518511     -0.635965650     -0.000000000
