       3
Lattice="15.0 0.0 0.0 0.0 15.0 0.0 0.0 0.0 15.0" Properties=species:S:1:pos:R:3:forces:R:3 energy=        1.5761388713 pbc="T T T"
       O    -0.0052552800    -0.0326577200     0.0000000000     -1.602799882      6.390481364     -0.000000000
       H     0.8954117800     0.2169169500     0.0000000000      2.465065706     -1.034139523     -0.000000000
       H    -0.0906869400     1.2303312200     0.0000000000     -0.862265824     -5.356341841     -0.000000000
