       3
Lattice="15.0 0.0 0.0 0.0 15.0 0.0 0.0 0.0 15.0" Properties=species:S:1:pos:R:3:forces:R:3 energy=        1.7436321441 pbc="T T T"
       O    -0.0021449000    -0.0182928300     0.0000000000    -11.649574421      0.134885432     -0.000000000
       H     0.7716515700     0.2294238100     0.0000000000     14.911738225      0.511808768     -0.000000000
       H    -0.0162906400     0.9898422900     0.0000000000     -3.262163803     -0.646694200     -0.000000000
