3
Lattice="15.0 0.0 0.0 0.0 15.0 0.0 0.0 0.0 15.0" Properties=species:S:1:pos:R:3 energy=-76.3230797921 pbc="T T T"
O        0.01986363       0.02558251       0.00000000
H        0.95546850      -0.32279775       0.00000000
H       -0.54941373       0.84573370       0.00000000
3
Lattice="15.0 0.0 0.0 0.0 15.0 0.0 0.0 0.0 15.0" Properties=species:S:1:pos:R:3 energy=-76.3297753315 pbc="T T T"
O        0.01765656       0.02274001       0.00000000
H        0.95584219      -0.28693133       0.00000000
H       -0.51475864       0.85497967       0.00000000
3
Lattice="15.0 0.0 0.0 0.0 15.0 0.0 0.0 0.0 15.0" Properties=species:S:1:pos:R:3 energy=-76.3358535180 pbc="T T T"
O        0.01544949       0.01989751       0.00000000
H        0.95621587      -0.25106491       0.00000000
H       -0.48010356       0.86422564       0.00000000
3
Lattice="15.0 0.0 0.0 0.0 15.0 0.0 0.0 0.0 15.0" Properties=species:S:1:pos:R:3 energy=-76.3412796533 pbc="T T T"
O        0.01324242       0.01705501       0.00000000
H        0.95658955      -0.21519850       0.00000000
H       -0.44544847       0.87347161       0.00000000
3
Lattice="15.0 0.0 0.0 0.0 15.0 0.0 0.0 0.0 15.0" Properties=species:S:1:pos:R:3 energy=-76.3460132077 pbc="T T T"
O        0.01103535       0.01421250       0.00000000
H        0.95696323      -0.17933208       0.00000000
H       -0.41079339       0.88271758       0.00000000
3
Lattice="15.0 0.0 0.0 0.0 15.0 0.0 0.0 0.0 15.0" Properties=species:S:1:pos:R:3 energy=-76.3500077054 pbc="T T T"
O        0.00882828       0.01137000       0.00000000
H        0.95733691      -0.14346567       0.00000000
H       -0.37613831       0.89196355       0.00000000
3
Lattice="15.0 0.0 0.0 0.0 15.0 0.0 0.0 0.0 15.0" Properties=species:S:1:pos:R:3 energy=-76.3532120748 pbc="T T T"
O        0.00662121       0.00852750       0.00000000
H        0.95771059      -0.10759925       0.00000000
H       -0.34148322       0.90120952       0.00000000
3
Lattice="15.0 0.0 0.0 0.0 15.0 0.0 0.0 0.0 15.0" Properties=species:S:1:pos:R:3 energy=-76.3555721339 pbc="T T T"
O        0.00441414       0.00568500       0.00000000
H        0.95808427      -0.07173283       0.00000000
H       -0.30682814       0.91045548       0.00000000
3
Lattice="15.0 0.0 0.0 0.0 15.0 0.0 0.0 0.0 15.0" Properties=species:S:1:pos:R:3 energy=-76.3570313371 pbc="T T T"
O        0.00220707       0.00284250       0.00000000
H        0.95845795      -0.03586642       0.00000000
H       -0.27217305       0.91970145       0.00000000
3
Lattice="15.0 0.0 0.0 0.0 15.0 0.0 0.0 0.0 15.0" Properties=species:S:1:pos:R:3 energy=-76.3575310289 pbc="T T T"
O        0.00000000       0.00000000       0.00000000
H        0.95883163       0.00000000       0.00000000
H       -0.23751797       0.92894742       0.00000000
3
Lattice="15.0 0.0 0.0 0.0 15.0 0.0 0.0 0.0 15.0" Properties=species:S:1:pos:R:3 energy=-76.3570113158 pbc="T T T"
O       -0.00220707      -0.00284250       0.00000000
H        0.95920531       0.03586642       0.00000000
H       -0.20286288       0.93819339       0.00000000
3
Lattice="15.0 0.0 0.0 0.0 15.0 0.0 0.0 0.0 15.0" Properties=species:S:1:pos:R:3 energy=-76.3554136321 pbc="T T T"
O       -0.00441414      -0.00568500       0.00000000
H        0.95957899       0.07173283       0.00000000
H       -0.16820780       0.94743936       0.00000000
3
Lattice="15.0 0.0 0.0 0.0 15.0 0.0 0.0 0.0 15.0" Properties=species:S:1:pos:R:3 energy=-76.3526851733 pbc="T T T"
O       -0.00662121      -0.00852750       0.00000000
H        0.95995267       0.10759925       0.00000000
H       -0.13355272       0.95668533       0.00000000
3
Lattice="15.0 0.0 0.0 0.0 15.0 0.0 0.0 0.0 15.0" Properties=species:S:1:pos:R:3 energy=-76.3487842158 pbc="T T T"
O       -0.00882828      -0.01137000       0.00000000
H        0.96032635       0.14346567       0.00000000
H       -0.09889763       0.96593129       0.00000000
3
Lattice="15.0 0.0 0.0 0.0 15.0 0.0 0.0 0.0 15.0" Properties=species:S:1:pos:R:3 energy=-76.3436850276 pbc="T T T"
O       -0.01103535      -0.01421250       0.00000000
H        0.96070003       0.17933208       0.00000000
H       -0.06424255       0.97517726       0.00000000
3
Lattice="15.0 0.0 0.0 0.0 15.0 0.0 0.0 0.0 15.0" Properties=species:S:1:pos:R:3 energy=-76.3373817469 pbc="T T T"
O       -0.01324242      -0.01705501       0.00000000
H        0.96107371       0.21519850       0.00000000
H       -0.02958746       0.98442323       0.00000000
3
Lattice="15.0 0.0 0.0 0.0 15.0 0.0 0.0 0.0 15.0" Properties=species:S:1:pos:R:3 energy=-76.3298911485 pbc="T T T"
O       -0.01544949      -0.01989751       0.00000000
H        0.96144740       0.25106491       0.00000000
H        0.00506762       0.99366920       0.00000000
3
Lattice="15.0 0.0 0.0 0.0 15.0 0.0 0.0 0.0 15.0" Properties=species:S:1:pos:R:3 energy=-76.3212541198 pbc="T T T"
O       -0.01765656      -0.02274001       0.00000000
H        0.96182108       0.28693133       0.00000000
H        0.03972270       1.00291517       0.00000000
