       3
Lattice="15.0 0.0 0.0 0.0 15.0 0.0 0.0 0.0 15.0" Properties=species:S:1:pos:R:3:forces:R:3 energy=        0.7847123602 pbc="T T T"
       O     0.0064914200    -0.0041918200     0.0000000000    -12.223882828      1.302360268     -0.000000000
       H     0.8239063700     0.0379807400     0.0000000000     12.548657894     -0.057659330     -0.000000000
       H    -0.2056152100     0.9574931600     0.0000000000     -0.324775066     -1.244700939     -0.000000000
       3
Lattice="15.0 0.0 0.0 0.0 15.0 0.0 0.0 0.0 15.0" Properties=species:S:1:pos:R:3:forces:R:3 energy=        0.3654194794 pbc="T T T"
       O    -0.0049233700    -0.0083889800     0.0000000000      2.262599155      3.852214260     -0.000000000
       H     1.0330752000     0.0294572500     0.0000000000     -3.059691339     -0.131847261     -0.000000000
       H    -0.2336231900     1.0326296200     0.0000000000      0.797092184     -3.720366999     -0.000000000
       3
Lattice="15.0 0.0 0.0 0.0 15.0 0.0 0.0 0.0 15.0" Properties=species:S:1:pos:R:3:forces:R:3 energy=        0.9848623711 pbc="T T T"
       O     0.0035180500     0.0181640900     0.0000000000      6.105467091    -13.625223056     -0.000000000
       H     0.9859287200    -0.1216326500     0.0000000000     -2.030007540      1.274703875     -0.000000000
       H    -0.3204524100     0.7623032600     0.0000000000     -4.075459550     12.350519181     -0.000000000
       3
Lattice="15.0 0.0 0.0 0.0 15.0 0.0 0.0 0.0 15.0" Properties=species:S:1:pos:R:3:forces:R:3 energy=        0.5834527016 pbc="T T T"
       O     0.0067767300     0.0052391800     0.0000000000      0.006483451      1.861376466     -0.000000000
       H     1.0193008300    -0.1469806300     0.0000000000     -2.784351412      1.684120931     -0.000000000
       H    -0.4055425400     0.9927794400     0.0000000000      2.777867961     -3.545497346     -0.000000000
       3
Lattice="15.0 0.0 0.0 0.0 15.0 0.0 0.0 0.0 15.0" Properties=species:S:1:pos:R:3:forces:R:3 energy=        0.8421114864 pbc="T T T"
       O    -0.0128970200    -0.0001021900     0.0000000000      5.637050543     -8.727451513     -0.000000000
       H     1.0371215600     0.0984708000     0.0000000000     -3.127732891     -1.340593413     -0.000000000
       H    -0.1111203700     0.8320981800     0.0000000000     -2.509317703     10.068044926     -0.000000000
       3
Lattice="15.0 0.0 0.0 0.0 15.0 0.0 0.0 0.0 15.0" Properties=species:S:1:pos:R:3:forces:R:3 energy=        0.6334661815 pbc="T T T"
       O    -0.0071366100     0.0059993100     0.0000000000      5.725392249     -8.929953956     -0.000000000
       H     1.0383303300     0.0073152100     0.0000000000     -3.452964122     -0.091064352     -0.000000000
       H    -0.2037534200     0.8264190200     0.0000000000     -2.272428179      9.021018308     -0.000000000
       3
Lattice="15.0 0.0 0.0 0.0 15.0 0.0 0.0 0.0 15.0" Properties=species:S:1:pos:R:3:forces:R:3 energy=        0.8217533124 pbc="T T T"
       O    -0.0034488500    -0.0207241500     0.0000000000     -0.559670184      6.003162436     -0.000000000
       H     0.9473427900     0.1167264300     0.0000000000      0.446149087     -0.727995451     -0.000000000
       H    -0.1712900100     1.1411278400     0.0000000000      0.113521097     -5.275166985     -0.000000000
       3
Lattice="15.0 0.0 0.0 0.0 15.0 0.0 0.0 0.0 15.0" Properties=species:S:1:pos:R:3:forces:R:3 energy=        0.4605480794 pbc="T T T"
       O    -0.0038461700    -0.0157984800     0.0000000000     -2.291515543      4.275900842     -0.000000000
       H     0.9005382900     0.1424471200     0.0000000000      3.278401716     -0.990761444     -0.000000000
       H    -0.1181791600     1.0372328900     0.0000000000     -0.986886173     -3.285139398     -0.000000000
       3
Lattice="15.0 0.0 0.0 0.0 15.0 0.0 0.0 0.0 15.0" Properties=species:S:1:pos:R:3:forces:R:3 energy=        0.3435376066 pbc="T T T"
       O     0.0077091600     0.0077282000     0.0000000000     -0.538894992      0.863915238     -0.000000000
       H     0.9902556400    -0.1437606000     0.0000000000     -1.772298344      1.521246457     -0.000000000
       H    -0.3912958000     0.9500567000     0.0000000000      2.311193336     -2.385161695     -0.000000000
       3
Lattice="15.0 0.0 0.0 0.0 15.0 0.0 0.0 0.0 15.0" Properties=species:S:1:pos:R:3:forces:R:3 energy=        0.7272541064 pbc="T T T"
       O    -0.0053281300    -0.0202298500     0.0000000000      0.401119485      5.971995920     -0.000000000
       H     0.9601682000     0.1283698800     0.0000000000     -0.282391438     -0.957535216     -0.000000000
       H    -0.1542896200     1.1216394600     0.0000000000     -0.118728046     -5.014460652     -0.000000000
       3
Lattice="15.0 0.0 0.0 0.0 15.0 0.0 0.0 0.0 15.0" Properties=species:S:1:pos:R:3:forces:R:3 energy=        0.5131392340 pbc="T T T"
       O    -0.0015796000     0.0036031800     0.0000000000      2.858374278      0.877676509     -0.000000000
       H     1.0843493200    -0.0893539300     0.0000000000     -4.556340812      1.233290069     -0.000000000
       H    -0.3379685200     0.9611172500     0.0000000000      1.697966534     -2.110966578     -0.000000000
       3
Lattice="15.0 0.0 0.0 0.0 15.0 0.0 0.0 0.0 15.0" Properties=species:S:1:pos:R:3:forces:R:3 energy=        0.4590990976 pbc="T T T"
       O    -0.0002189700     0.0105638400     0.0000000000      4.041452684     -8.586829587     -0.000000000
       H     0.9929023100    -0.0570446000     0.0000000000     -1.973288206      0.605211745     -0.000000000
       H    -0.2681151000     0.8183365300     0.0000000000     -2.068164478      7.981617842     -0.000000000
       3
Lattice="15.0 0.0 0.0 0.0 15.0 0.0 0.0 0.0 15.0" Properties=species:S:1:pos:R:3:forces:R:3 energy=        0.4882858642 pbc="T T T"
       O    -0.0000937900    -0.0128060100     0.0000000000     -1.348408696      4.983454728     -0.000000000
       H     0.9512594700     0.0473873800     0.0000000000      0.546821347     -0.190969189     -0.000000000
       H    -0.2284558400     1.0848006800     0.0000000000      0.801587297     -4.792485487     -0.000000000
       3
Lattice="15.0 0.0 0.0 0.0 15.0 0.0 0.0 0.0 15.0" Properties=species:S:1:pos:R:3:forces:R:3 energy=        0.0616962503 pbc="T T T"
       O     0.0025602100    -0.0010045400     0.0000000000     -1.393167818      1.767164723     -0.000000000
       H     0.9502944100    -0.0217573500     0.0000000000      0.565051146      0.252991580     -0.000000000
       H    -0.2696136500     0.9666476500     0.0000000000      0.828116672     -2.020156302     -0.000000000
       3
Lattice="15.0 0.0 0.0 0.0 15.0 0.0 0.0 0.0 15.0" Properties=species:S:1:pos:R:3:forces:R:3 energy=        0.0426578721 pbc="T T T"
       O    -0.0003721000    -0.0024705700     0.0000000000     -1.374447916      0.196054936     -0.000000000
       H     0.9285996500     0.0358462800     0.0000000000      1.858052285     -0.371934365     -0.000000000
       H    -0.2013796000     0.9323106200     0.0000000000     -0.483604370      0.175879377     -0.000000000
       3
Lattice="15.0 0.0 0.0 0.0 15.0 0.0 0.0 0.0 15.0" Properties=species:S:1:pos:R:3:forces:R:3 energy=        0.2288832372 pbc="T T T"
       O     0.0075361300     0.0127523500     0.0000000000     -0.273677400     -4.253200253     -0.000000000
       H     0.9421780700    -0.1201257900     0.0000000000      0.485049896      0.966299391     -0.000000000
       H    -0.3404715700     0.8466846800     0.0000000000     -0.211372445      3.286900861     -0.000000000
       3
Lattice="15.0 0.0 0.0 0.0 15.0 0.0 0.0 0.0 15.0" Properties=species:S:1:pos:R:3:forces:R:3 energy=        0.0885419887 pbc="T T T"
       O    -0.0013095700    -0.0044423200     0.0000000000      0.436134327      2.446848608     -0.000000000
       H     0.9791973200     0.0143224200     0.0000000000     -0.982164905     -0.045249123     -0.000000000
       H    -0.2370993300     0.9851278900     0.0000000000      0.546030527     -2.401599485     -0.000000000
       3
Lattice="15.0 0.0 0.0 0.0 15.0 0.0 0.0 0.0 15.0" Properties=species:S:1:pos:R:3:forces:R:3 energy=        0.1257919598 pbc="T T T"
       O    -0.0073290900    -0.0078471600     0.0000000000      1.985939891      1.422053147     -0.000000000
       H     0.9783305100     0.0999086000     0.0000000000     -1.021463259     -1.096485256     -0.000000000
       H    -0.1406961800     0.9535785500     0.0000000000     -0.964476633     -0.325567891     -0.000000000
       3
Lattice="15.0 0.0 0.0 0.0 15.0 0.0 0.0 0.0 15.0" Properties=species:S:1:pos:R:3:forces:R:3 energy=        0.4989160058 pbc="T T T"
       O    -0.0072500900     0.0028658600     0.0000000000      4.589424755     -0.975671427     -0.000000000
       H     1.1099563400    -0.0370321200     0.0000000000     -5.045327069      0.635689050     -0.000000000
       H    -0.2735795500     0.9204970800     0.0000000000      0.455902314      0.339982377     -0.000000000
       3
Lattice="15.0 0.0 0.0 0.0 15.0 0.0 0.0 0.0 15.0" Properties=species:S:1:pos:R:3:forces:R:3 energy=        0.1533996062 pbc="T T T"
       O     0.0069002000     0.0105521600     0.0000000000     -0.247411203     -2.053804860     -0.000000000
       H     0.9620257400    -0.1207680300     0.0000000000     -0.535244076      1.132398493     -0.000000000
       H    -0.3502265600     0.8822456000     0.0000000000      0.782655279      0.921406418     -0.000000000
       3
Lattice="15.0 0.0 0.0 0.0 15.0 0.0 0.0 0.0 15.0" Properties=species:S:1:pos:R:3:forces:R:3 energy=        0.0986564636 pbc="T T T"
       O    -0.0040459800     0.0001191100     0.0000000000      2.048361523     -2.544134416     -0.000000000
       H     0.9768878100     0.0354662300     0.0000000000     -0.973696202     -0.441598849     -0.000000000
       H    -0.1913606600     0.8915906800     0.0000000000     -1.074665270      2.985733265     -0.000000000
       3
Lattice="15.0 0.0 0.0 0.0 15.0 0.0 0.0 0.0 15.0" Properties=species:S:1:pos:R:3:forces:R:3 energy=        0.3944094914 pbc="T T T"
       O     0.0084212700     0.0102303600     0.0000000000     -4.324602598     -4.558952848     -0.000000000
       H     0.8830273300    -0.0771555000     0.0000000000      5.277287169      0.110087490     -0.000000000
       H    -0.2953674000     0.8437396900     0.0000000000     -0.952684571      4.448865410     -0.000000000
       3
Lattice="15.0 0.0 0.0 0.0 15.0 0.0 0.0 0.0 15.0" Properties=species:S:1:pos:R:3:forces:R:3 energy=        0.7652282649 pbc="T T T"
       O     0.0064230100    -0.0079520500     0.0000000000    -10.968209085      3.318891416     -0.000000000
       H     0.8384139200     0.0394067800     0.0000000000     10.649520852      0.077839825     -0.000000000
       H    -0.2190369900     1.0157449200     0.0000000000      0.318688284     -3.396731241     -0.000000000
       3
Lattice="15.0 0.0 0.0 0.0 15.0 0.0 0.0 0.0 15.0" Properties=species:S:1:pos:R:3:forces:R:3 energy=        0.2113361083 pbc="T T T"
       O     0.0046671100    -0.0009888400     0.0000000000     -5.698447641      0.809352187     -0.000000000
       H     0.8833051600     0.0042464200     0.0000000000      5.662166222     -0.117063359     -0.000000000
       H    -0.2360618400     0.9403943000     0.0000000000      0.036281419     -0.692288776     -0.000000000
       3
Lattice="15.0 0.0 0.0 0.0 15.0 0.0 0.0 0.0 15.0" Properties=species:S:1:pos:R:3:forces:R:3 energy=        0.6434172084 pbc="T T T"
       O    -0.0055020900     0.0043640600     0.0000000000      4.132144328     -0.296109823     -0.000000000
       H     1.1253211000    -0.0752262700     0.0000000000     -5.289899567      1.102988710     -0.000000000
       H    -0.3166872300     0.9349139700     0.0000000000      1.157755239     -0.806878887     -0.000000000
       3
Lattice="15.0 0.0 0.0 0.0 15.0 0.0 0.0 0.0 15.0" Properties=species:S:1:pos:R:3:forces:R:3 energy=        0.6608088814 pbc="T T T"
       O     0.0088868100    -0.0012623900     0.0000000000     -2.756069469      3.638393918     -0.000000000
       H     0.9612065500    -0.1073874100     0.0000000000      0.037188557      1.082823641     -0.000000000
       H    -0.3809357400     1.0563705500     0.0000000000      2.718880913     -4.721217559     -0.000000000
       3
Lattice="15.0 0.0 0.0 0.0 15.0 0.0 0.0 0.0 15.0" Properties=species:S:1:pos:R:3:forces:R:3 energy=        0.1444121697 pbc="T T T"
       O     0.0012885900     0.0038640100     0.0000000000     -0.746972207     -3.757077176     -0.000000000
       H     0.9275521000    -0.0037666700     0.0000000000      1.871075906     -0.115170924     -0.000000000
       H    -0.2266894100     0.8713893300     0.0000000000     -1.124103699      3.872248048     -0.000000000
       3
Lattice="15.0 0.0 0.0 0.0 15.0 0.0 0.0 0.0 15.0" Properties=species:S:1:pos:R:3:forces:R:3 energy=        0.3715860475 pbc="T T T"
       O    -0.0116392700    -0.0030456900     0.0000000000      4.887393177     -2.321402986     -0.000000000
       H     1.0518175100     0.0808335200     0.0000000000     -3.597997960     -0.960436039     -0.000000000
       H    -0.1457780500     0.8964511200     0.0000000000     -1.289395217      3.281839025     -0.000000000
       3
Lattice="15.0 0.0 0.0 0.0 15.0 0.0 0.0 0.0 15.0" Properties=species:S:1:pos:R:3:forces:R:3 energy=        0.1962689734 pbc="T T T"
       O     0.0004037600    -0.0081152300     0.0000000000     -2.859589331      3.200264620     -0.000000000
       H     0.9159350500     0.0539051900     0.0000000000      2.776084900     -0.347333061     -0.000000000
       H    -0.2010278900     1.0038365300     0.0000000000      0.083504431     -2.852931507     -0.000000000
       3
Lattice="15.0 0.0 0.0 0.0 15.0 0.0 0.0 0.0 15.0" Properties=species:S:1:pos:R:3:forces:R:3 energy=        0.1230762499 pbc="T T T"
       O     0.0058357000     0.0009958700     0.0000000000     -3.657022186      1.591329003     -0.000000000
       H     0.9194156000    -0.0444496300     0.0000000000      2.626732326      0.325815283     -0.000000000
       H    -0.2907199000     0.9575920200     0.0000000000      1.030289860     -1.917144286     -0.000000000
       3
Lattice="15.0 0.0 0.0 0.0 15.0 0.0 0.0 0.0 15.0" Properties=species:S:1:pos:R:3:forces:R:3 energy=        0.5046676111 pbc="T T T"
       O    -0.0121118900    -0.0025337400     0.0000000000      5.182398762     -0.254953589     -0.000000000
       H     1.1121155100     0.0382221400     0.0000000000     -4.937308546     -0.291807234     -0.000000000
       H    -0.1985763000     0.9309379300     0.0000000000     -0.245090216      0.546760823     -0.000000000
       3
Lattice="15.0 0.0 0.0 0.0 15.0 0.0 0.0 0.0 15.0" Properties=species:S:1:pos:R:3:forces:R:3 energy=        0.0855794335 pbc="T T T"
       O     0.0002613800     0.0045241900     0.0000000000      1.004940930     -3.360830037     -0.000000000
       H     0.9615159400    -0.0195612600     0.0000000000     -0.248978189      0.139949273     -0.000000000
       H    -0.2443510600     0.8767065400     0.0000000000     -0.755962742      3.220880712     -0.000000000
       3
Lattice="15.0 0.0 0.0 0.0 15.0 0.0 0.0 0.0 15.0" Properties=species:S:1:pos:R:3:forces:R:3 energy=        0.7333158535 pbc="T T T"
       O    -0.0139077300    -0.0036897100     0.0000000000      5.283378835      0.933261780     -0.000000000
       H     1.1536548200     0.0317402600     0.0000000000     -5.469502109     -0.146285709     -0.000000000
       H    -0.2116144800     0.9557661500     0.0000000000      0.186123274     -0.786976071     -0.000000000
       3
Lattice="15.0 0.0 0.0 0.0 15.0 0.0 0.0 0.0 15.0" Properties=species:S:1:pos:R:3:forces:R:3 energy=        0.5251993366 pbc="T T T"
       O     0.0064073700    -0.0071129200     0.0000000000     -7.148058091      4.032508172     -0.000000000
       H     0.8814654900     0.0035248700     0.0000000000      6.050539354      0.113722929     -0.000000000
       H    -0.2618413100     1.0383096200     0.0000000000      1.097518737     -4.146231101     -0.000000000
       3
Lattice="15.0 0.0 0.0 0.0 15.0 0.0 0.0 0.0 15.0" Properties=species:S:1:pos:R:3:forces:R:3 energy=        0.3908830727 pbc="T T T"
       O     0.0122088500     0.0058470200     0.0000000000     -5.751738253      2.171242212     -0.000000000
       H     0.9049807500    -0.1270692200     0.0000000000      3.454483182      0.697251933     -0.000000000
       H    -0.3774337800     0.9632206300     0.0000000000      2.297255122     -2.868494145     -0.000000000
       3
Lattice="15.0 0.0 0.0 0.0 15.0 0.0 0.0 0.0 15.0" Properties=species:S:1:pos:R:3:forces:R:3 energy=        0.7872105913 pbc="T T T"
       O    -0.0002208200     0.0116330700     0.0000000000      4.530960412    -12.527735481     -0.000000000
       H     0.9721275700    -0.0442587900     0.0000000000     -1.036795217      0.359705987     -0.000000000
       H    -0.2473105900     0.7885810200     0.0000000000     -3.494165196     12.168029494     -0.000000000
       3
Lattice="15.0 0.0 0.0 0.0 15.0 0.0 0.0 0.0 15.0" Properties=species:S:1:pos:R:3:forces:R:3 energy=        0.1528433918 pbc="T T T"
       O     0.0022659000    -0.0044094200     0.0000000000     -3.984846273      1.949180452     -0.000000000
       H     0.9021070900     0.0300170100     0.0000000000      3.932327764     -0.214875729     -0.000000000
       H    -0.2167540400     0.9689107200     0.0000000000      0.052518458     -1.734304723     -0.000000000
       3
Lattice="15.0 0.0 0.0 0.0 15.0 0.0 0.0 0.0 15.0" Properties=species:S:1:pos:R:3:forces:R:3 energy=        0.9430501690 pbc="T T T"
       O     0.0092232200    -0.0049299100     0.0000000000    -13.823918773      3.120654332     -0.000000000
       H     0.8223845200     0.0078215700     0.0000000000     13.167103627      0.024816659     -0.000000000
       H    -0.2474497100     0.9993665700     0.0000000000      0.656815146     -3.145470992     -0.000000000
       3
Lattice="15.0 0.0 0.0 0.0 15.0 0.0 0.0 0.0 15.0" Properties=species:S:1:pos:R:3:forces:R:3 energy=        0.1127393927 pbc="T T T"
       O    -0.0041172100    -0.0075796700     0.0000000000     -0.343532712      1.453068482     -0.000000000
       H     0.9348783200     0.0932241500     0.0000000000      1.298051971     -0.921720864     -0.000000000
       H    -0.1482190900     0.9560175900     0.0000000000     -0.954519311     -0.531347618     -0.000000000
       3
Lattice="15.0 0.0 0.0 0.0 15.0 0.0 0.0 0.0 15.0" Properties=species:S:1:pos:R:3:forces:R:3 energy=        0.1630920080 pbc="T T T"
       O    -0.0034903400    -0.0096131500     0.0000000000      0.119701467      3.472558251     -0.000000000
       H     0.9592073300     0.0730140300     0.0000000000     -0.032331638     -0.624711926     -0.000000000
       H    -0.1824974800     1.0085008500     0.0000000000     -0.087369829     -2.847846274     -0.000000000
       3
Lattice="15.0 0.0 0.0 0.0 15.0 0.0 0.0 0.0 15.0" Properties=species:S:1:pos:R:3:forces:R:3 energy=        0.8676625941 pbc="T T T"
       O     0.0053702300     0.0184549000     0.0000000000      4.843136295    -12.420399278     -0.000000000
       H     0.9669078700    -0.1306051400     0.0000000000     -1.181327381      1.242172257     -0.000000000
       H    -0.3308272800     0.7666603600     0.0000000000     -3.661808863     11.178227020     -0.000000000
       3
Lattice="15.0 0.0 0.0 0.0 15.0 0.0 0.0 0.0 15.0" Properties=species:S:1:pos:R:3:forces:R:3 energy=        0.1238707979 pbc="T T T"
       O     0.0001108500     0.0063305900     0.0000000000      2.134495628     -3.687193479     -0.000000000
       H     0.9872303800    -0.0433659100     0.0000000000     -1.583301604      0.469361686     -0.000000000
       H    -0.2676771200     0.8718426000     0.0000000000     -0.551194076      3.217831742     -0.000000000
       3
Lattice="15.0 0.0 0.0 0.0 15.0 0.0 0.0 0.0 15.0" Properties=species:S:1:pos:R:3:forces:R:3 energy=        0.7670675614 pbc="T T T"
       O     0.0046746300    -0.0082572600     0.0000000000     -1.423218320      4.562549823     -0.000000000
       H     0.9789390800    -0.0472054600     0.0000000000     -0.734888222      0.687120394     -0.000000000
       H    -0.3318161900     1.1072021700     0.0000000000      2.158106491     -5.249670269     -0.000000000
       3
Lattice="15.0 0.0 0.0 0.0 15.0 0.0 0.0 0.0 15.0" Properties=species:S:1:pos:R:3:forces:R:3 energy=        0.3945658752 pbc="T T T"
       O     0.0005224100     0.0117010900     0.0000000000      4.054215749     -5.266113612     -0.000000000
       H     1.0372785200    -0.1042239200     0.0000000000     -3.620154658      1.297964605     -0.000000000
       H    -0.3242587000     0.8474673100     0.0000000000     -0.434061091      3.968149007     -0.000000000
       3
Lattice="15.0 0.0 0.0 0.0 15.0 0.0 0.0 0.0 15.0" Properties=species:S:1:pos:R:3:forces:R:3 energy=        0.2625583287 pbc="T T T"
       O    -0.0036807600     0.0051428800     0.0000000000      3.929619465     -2.671927611     -0.000000000
       H     1.0512673000    -0.0426218700     0.0000000000     -3.837141366      0.617740890     -0.000000000
       H    -0.2715384100     0.8899485900     0.0000000000     -0.092478099      2.054186720     -0.000000000
       3
Lattice="15.0 0.0 0.0 0.0 15.0 0.0 0.0 0.0 15.0" Properties=species:S:1:pos:R:3:forces:R:3 energy=        0.2814953690 pbc="T T T"
       O     0.0017112600     0.0071144900     0.0000000000      2.149050084     -0.654150917     -0.000000000
       H     1.0370001500    -0.1042069000     0.0000000000     -3.455004396      1.306313033     -0.000000000
       H    -0.3428482500     0.9202430400     0.0000000000      1.305954312     -0.652162116     -0.000000000
       3
Lattice="15.0 0.0 0.0 0.0 15.0 0.0 0.0 0.0 15.0" Properties=species:S:1:pos:R:3:forces:R:3 energy=        0.4323378178 pbc="T T T"
       O    -0.0025375300    -0.0122444500     0.0000000000     -4.033734074      2.566450470     -0.000000000
       H     0.8759248800     0.1342335100     0.0000000000      5.391497939     -0.865123452     -0.000000000
       H    -0.1143352400     0.9890412800     0.0000000000     -1.357763865     -1.701327019     -0.000000000
       3
Lattice="15.0 0.0 0.0 0.0 15.0 0.0 0.0 0.0 15.0" Properties=species:S:1:pos:R:3:forces:R:3 energy=        1.1765672984 pbc="T T T"
       O    -0.0059013200     0.0080543100     0.0000000000      5.915700562    -15.568799117     -0.000000000
       H     0.9932920700     0.0205895300     0.0000000000     -1.850619274     -0.408861183     -0.000000000
       H    -0.1783197300     0.7805299400     0.0000000000     -4.065081287     15.977660249     -0.000000000
       3
Lattice="15.0 0.0 0.0 0.0 15.0 0.0 0.0 0.0 15.0" Properties=species:S:1:pos:R:3:forces:R:3 energy=        0.5626131827 pbc="T T T"
       O    -0.0133253300    -0.0049777200     0.0000000000      5.147553510      1.016710572     -0.000000000
       H     1.1205937500     0.0542938500     0.0000000000     -5.013526827     -0.460893239     -0.000000000
       H    -0.1877960500     0.9536539300     0.0000000000     -0.134026683     -0.555817281     -0.000000000
       3
Lattice="15.0 0.0 0.0 0.0 15.0 0.0 0.0 0.0 15.0" Properties=species:S:1:pos:R:3:forces:R:3 energy=        0.5946902802 pbc="T T T"
       O    -0.0036712900    -0.0173218600     0.0000000000     -0.148700850      5.571288275     -0.000000000
       H     0.9573371200     0.1009863200     0.0000000000     -0.007465202     -0.701102316     -0.000000000
       H    -0.1777546100     1.1028712600     0.0000000000      0.156166052     -4.870185959     -0.000000000
       3
Lattice="15.0 0.0 0.0 0.0 15.0 0.0 0.0 0.0 15.0" Properties=species:S:1:pos:R:3:forces:R:3 energy=        0.5459277269 pbc="T T T"
       O    -0.0111369100    -0.0111328600     0.0000000000      4.063388884      4.021952966     -0.000000000
       H     1.0798437000     0.0783619800     0.0000000000     -4.232532790     -0.705010858     -0.000000000
       H    -0.1817769800     1.0272721800     0.0000000000      0.169143907     -3.316942108     -0.000000000
       3
Lattice="15.0 0.0 0.0 0.0 15.0 0.0 0.0 0.0 15.0" Properties=species:S:1:pos:R:3:forces:R:3 energy=        0.1853485816 pbc="T T T"
       O     0.0018780600    -0.0061212300     0.0000000000     -3.819971120      2.669779247     -0.000000000
       H     0.9053326800     0.0376858600     0.0000000000      3.660289032     -0.229388687     -0.000000000
       H    -0.2138241600     0.9884096200     0.0000000000      0.159682140     -2.440390560     -0.000000000
       3
Lattice="15.0 0.0 0.0 0.0 15.0 0.0 0.0 0.0 15.0" Properties=species:S:1:pos:R:3:forces:R:3 energy=        0.4814971377 pbc="T T T"
       O     0.0019202200    -0.0011241600     0.0000000000      0.897612749      2.889495800     -0.000000000
       H     1.0299853500    -0.0753750900     0.0000000000     -2.998332808      1.012869548     -0.000000000
       H    -0.3391488800     1.0221645200     0.0000000000      2.100720110     -3.902365348     -0.000000000
       3
Lattice="15.0 0.0 0.0 0.0 15.0 0.0 0.0 0.0 15.0" Properties=species:S:1:pos:R:3:forces:R:3 energy=        0.5771082908 pbc="T T T"
       O     0.0077710400    -0.0060646000     0.0000000000     -6.080262040      4.311824981     -0.000000000
       H     0.9014460200    -0.0320995000     0.0000000000      4.334575398      0.333177692     -0.000000000
       H    -0.3034650900     1.0572966100     0.0000000000      1.745686642     -4.645002672     -0.000000000
       3
Lattice="15.0 0.0 0.0 0.0 15.0 0.0 0.0 0.0 15.0" Properties=species:S:1:pos:R:3:forces:R:3 energy=        0.8517865246 pbc="T T T"
       O     0.0164359200     0.0068423300     0.0000000000    -12.798858848      3.031934416     -0.000000000
       H     0.8350569400    -0.1280022900     0.0000000000     10.626762721     -0.474091181     -0.000000000
       H    -0.3745966400     0.9483571900     0.0000000000      2.172096075     -2.557843184     -0.000000000
       3
Lattice="15.0 0.0 0.0 0.0 15.0 0.0 0.0 0.0 15.0" Properties=species:S:1:pos:R:3:forces:R:3 energy=        0.5782136880 pbc="T T T"
       O    -0.0073969900     0.0059950500     0.0000000000      5.801474570     -7.500751442     -0.000000000
       H     1.0579198200    -0.0046741400     0.0000000000     -4.012636106      0.111500055     -0.000000000
       H    -0.2192107900     0.8384761000     0.0000000000     -1.788838464      7.389251387     -0.000000000
       3
Lattice="15.0 0.0 0.0 0.0 15.0 0.0 0.0 0.0 15.0" Properties=species:S:1:pos:R:3:forces:R:3 energy=        0.2494967383 pbc="T T T"
       O     0.0104231000     0.0085300000     0.0000000000     -5.359712764     -0.554526279     -0.000000000
       H     0.8919795000    -0.1034199000     0.0000000000      4.478498159      0.385733431     -0.000000000
       H    -0.3360908200     0.8969902300     0.0000000000      0.881214606      0.168792848     -0.000000000
       3
Lattice="15.0 0.0 0.0 0.0 15.0 0.0 0.0 0.0 15.0" Properties=species:S:1:pos:R:3:forces:R:3 energy=        0.5509629108 pbc="T T T"
       O    -0.0014147500    -0.0120697500     0.0000000000      0.365581526      4.960187981     -0.000000000
       H     0.9920881200     0.0296424500     0.0000000000     -1.471139901     -0.053779944     -0.000000000
       H    -0.2483204800     1.0908608700     0.0000000000      1.105558426     -4.906408037     -0.000000000
       3
Lattice="15.0 0.0 0.0 0.0 15.0 0.0 0.0 0.0 15.0" Properties=species:S:1:pos:R:3:forces:R:3 energy=        0.1649500286 pbc="T T T"
       O    -0.0064588900    -0.0000572000     0.0000000000      3.586234335     -2.216280607     -0.000000000
       H     1.0197956500     0.0324396100     0.0000000000     -2.733500161     -0.357072199     -0.000000000
       H    -0.1959738400     0.8974156900     0.0000000000     -0.852734174      2.573352857     -0.000000000
       3
Lattice="15.0 0.0 0.0 0.0 15.0 0.0 0.0 0.0 15.0" Properties=species:S:1:pos:R:3:forces:R:3 energy=        0.4903532683 pbc="T T T"
       O    -0.0088843400     0.0021680000     0.0000000000      5.037073824     -1.742657676     -0.000000000
       H     1.1081359800    -0.0132790900     0.0000000000     -4.996554607      0.334860377     -0.000000000
       H    -0.2458217800     0.9078194700     0.0000000000     -0.040519217      1.407797299     -0.000000000
       3
Lattice="15.0 0.0 0.0 0.0 15.0 0.0 0.0 0.0 15.0" Properties=species:S:1:pos:R:3:forces:R:3 energy=        0.7047914283 pbc="T T T"
       O     0.0004095800    -0.0153518900     0.0000000000     -1.533335173      5.430753150     -0.000000000
       H     0.9512209300     0.0492357800     0.0000000000      0.578257520     -0.135718830     -0.000000000
       H    -0.2364060500     1.1233571400     0.0000000000      0.955077703     -5.295034320     -0.000000000
       3
Lattice="15.0 0.0 0.0 0.0 15.0 0.0 0.0 0.0 15.0" Properties=species:S:1:pos:R:3:forces:R:3 energy=        0.6598444473 pbc="T T T"
       O     0.0010866200     0.0033136600     0.0000000000      2.001533845      1.741898943     -0.000000000
       H     1.0764773300    -0.1151873700     0.0000000000     -4.345697481      1.505256553     -0.000000000
       H    -0.3724120400     0.9915456400     0.0000000000      2.344163636     -3.247155496     -0.000000000
       3
Lattice="15.0 0.0 0.0 0.0 15.0 0.0 0.0 0.0 15.0" Properties=species:S:1:pos:R:3:forces:R:3 energy=        0.8218186361 pbc="T T T"
       O    -0.0040996700     0.0090459700     0.0000000000      5.566803755    -12.331481798     -0.000000000
       H     1.0022042000    -0.0116592400     0.0000000000     -2.282578642      0.057644109     -0.000000000
       H    -0.2158263000     0.7970406800     0.0000000000     -3.284225165     12.273837638     -0.000000000
       3
Lattice="15.0 0.0 0.0 0.0 15.0 0.0 0.0 0.0 15.0" Properties=species:S:1:pos:R:3:forces:R:3 energy=        0.4926933604 pbc="T T T"