       3
Lattice="15.0 0.0 0.0 0.0 15.0 0.0 0.0 0.0 15.0" Properties=species:S:1:pos:R:3:forces:R:3 energy=        6.8840223339 pbc="T T T"
       O     0.0000000000     0.0000000000     0.0000000000    -26.090476895    -33.596206046     -0.000000000
       H     0.7000000000     0.0000000000     0.0000000000     36.640542339     -1.521938701     -0.000000000
       H    -0.1734000000     0.6781800000     0.0000000000    -10.550065495     35.118144799     -0.000000000
       3
Lattice="15.0 0.0 0.0 0.0 15.0 0.0 0.0 0.0 15.0" Properties=species:S:1:pos:R:3:forces:R:3 energy=        6.0819813985 pbc="T T T"
       O     0.0000000000     0.0000000000     0.0000000000    -27.888051149    -27.278492233     -0.000000000
       H     0.7000000000     0.0000000000     0.0000000000     36.665386509     -1.438171503     -0.000000000
       H    -0.1793800000     0.7015700000     0.0000000000     -8.777335360     28.716663736     -0.000000000
       3
Lattice="15.0 0.0 0.0 0.0 15.0 0.0 0.0 0.0 15.0" Properties=species:S:1:pos:R:3:forces:R:3 energy=        5.4279318580 pbc="T T T"
       O     0.0000000000     0.0000000000     0.0000000000    -29.431415891    -21.921739426     -0.000000000
       H     0.7000000000     0.0000000000     0.0000000000     36.688189531     -1.352508631     -0.000000000
       H    -0.1853600000     0.7249600000     0.0000000000     -7.256773691     23.274248057     -0.000000000
       3
Lattice="15.0 0.0 0.0 0.0 15.0 0.0 0.0 0.0 15.0" Properties=species:S:1:pos:R:3:forces:R:3 energy=        4.9000316472 pbc="T T T"
       O     0.0000000000     0.0000000000     0.0000000000    -30.758515120    -17.378804558     -0.000000000
       H     0.7000000000     0.0000000000     0.0000000000     36.709242248     -1.265405631     -0.000000000
       H    -0.1913400000     0.7483400000     0.0000000000     -5.950727128     18.644210189     -0.000000000
       3
Lattice="15.0 0.0 0.0 0.0 15.0 0.0 0.0 0.0 15.0" Properties=species:S:1:pos:R:3:forces:R:3 energy=        4.4793634567 pbc="T T T"
       O     0.0000000000     0.0000000000     0.0000000000    -31.902089998    -13.523649726     -0.000000000
       H     0.7000000000     0.0000000000     0.0000000000     36.728806089     -1.177268738     -0.000000000
       H    -0.1973200000     0.7717200000     0.0000000000     -4.826716091     14.700918465     -0.000000000
       3
Lattice="15.0 0.0 0.0 0.0 15.0 0.0 0.0 0.0 15.0" Properties=species:S:1:pos:R:3:forces:R:3 energy=        4.1499944623 pbc="T T T"
       O     0.0000000000     0.0000000000     0.0000000000    -32.889295605    -10.251639262     -0.000000000
       H     0.7000000000     0.0000000000     0.0000000000     36.747096617     -1.088473232     -0.000000000
       H    -0.2033000000     0.7951100000     0.0000000000     -3.857801012     11.340112545     -0.000000000
       3
Lattice="15.0 0.0 0.0 0.0 15.0 0.0 0.0 0.0 15.0" Properties=species:S:1:pos:R:3:forces:R:3 energy=        3.8986297739 pbc="T T T"
       O     0.0000000000     0.0000000000     0.0000000000    -33.742132109     -7.477521359     -0.000000000
       H     0.7000000000     0.0000000000     0.0000000000     36.764281468     -0.999399069     -0.000000000
       H    -0.2092800000     0.8185000000     0.0000000000     -3.022149359      8.476920429     -0.000000000
       3
Lattice="15.0 0.0 0.0 0.0 15.0 0.0 0.0 0.0 15.0" Properties=species:S:1:pos:R:3:forces:R:3 energy=        3.7137705565 pbc="T T T"
       O     0.0000000000     0.0000000000     0.0000000000    -34.479637149     -5.128022270     -0.000000000
       H     0.7000000000     0.0000000000     0.0000000000     36.780541132     -0.910397052     -0.000000000
       H    -0.2152600000     0.8418900000     0.0000000000     -2.300903982      6.038419322     -0.000000000
       3
Lattice="15.0 0.0 0.0 0.0 15.0 0.0 0.0 0.0 15.0" Properties=species:S:1:pos:R:3:forces:R:3 energy=        3.5856702330 pbc="T T T"
       O     0.0000000000     0.0000000000     0.0000000000    -35.117490607     -3.142668437     -0.000000000
       H     0.7000000000     0.0000000000     0.0000000000     36.796044891     -0.821829139     -0.000000000
       H    -0.2212400000     0.8652600000     0.0000000000     -1.678554233      3.964497576     -0.000000000
       3
Lattice="15.0 0.0 0.0 0.0 15.0 0.0 0.0 0.0 15.0" Properties=species:S:1:pos:R:3:forces:R:3 energy=        3.5057249633 pbc="T T T"
       O     0.0000000000     0.0000000000     0.0000000000    -35.670468978     -1.465735645     -0.000000000
       H     0.7000000000     0.0000000000     0.0000000000     36.811042349     -0.733942416     -0.000000000
       H    -0.2272200000     0.8886500000     0.0000000000     -1.140573371      2.199678060     -0.000000000
       3
Lattice="15.0 0.0 0.0 0.0 15.0 0.0 0.0 0.0 15.0" Properties=species:S:1:pos:R:3:forces:R:3 energy=        3.4668520644 pbc="T T T"
       O     0.0000000000     0.0000000000     0.0000000000    -36.149676245     -0.054466738     -0.000000000
       H     0.7000000000     0.0000000000     0.0000000000     36.825739913     -0.647130825     -0.000000000
       H    -0.2331900000     0.9120400000     0.0000000000     -0.676063668      0.701597563     -0.000000000
       3
Lattice="15.0 0.0 0.0 0.0 15.0 0.0 0.0 0.0 15.0" Properties=species:S:1:pos:R:3:forces:R:3 energy=        3.4628432884 pbc="T T T"
       O     0.0000000000     0.0000000000     0.0000000000    -36.565304214      1.129216340     -0.000000000
       H     0.7000000000     0.0000000000     0.0000000000     36.840321263     -0.561489292     -0.000000000
       H    -0.2391700000     0.9354300000     0.0000000000     -0.275017048     -0.567727100     -0.000000000
       3
Lattice="15.0 0.0 0.0 0.0 15.0 0.0 0.0 0.0 15.0" Properties=species:S:1:pos:R:3:forces:R:3 energy=        3.4883696583 pbc="T T T"
       O     0.0000000000     0.0000000000     0.0000000000    -36.925733401      2.117063335     -0.000000000
       H     0.7000000000     0.0000000000     0.0000000000     36.854988025     -0.477349336     -0.000000000
       H    -0.2451500000     0.9588100000     0.0000000000      0.070745377     -1.639713999     -0.000000000
       3
Lattice="15.0 0.0 0.0 0.0 15.0 0.0 0.0 0.0 15.0" Properties=species:S:1:pos:R:3:forces:R:3 energy=        3.5388429589 pbc="T T T"
       O     0.0000000000     0.0000000000     0.0000000000    -37.238451427      2.937023847     -0.000000000
       H     0.7000000000     0.0000000000     0.0000000000     36.869915959     -0.394901834     -0.000000000
       H    -0.2511300000     0.9821900000     0.0000000000      0.368535468     -2.542122012     -0.000000000
       3
Lattice="15.0 0.0 0.0 0.0 15.0 0.0 0.0 0.0 15.0" Properties=species:S:1:pos:R:3:forces:R:3 energy=        3.6103424811 pbc="T T T"
       O     0.0000000000     0.0000000000     0.0000000000    -37.509796733      3.612748746     -0.000000000
       H     0.7000000000     0.0000000000     0.0000000000     36.885242570     -0.314315659     -0.000000000
       H    -0.2571100000     1.0055800000     0.0000000000      0.624554163     -3.298433087     -0.000000000
       3
Lattice="15.0 0.0 0.0 0.0 15.0 0.0 0.0 0.0 15.0" Properties=species:S:1:pos:R:3:forces:R:3 energy=        3.6994300499 pbc="T T T"
       O     0.0000000000     0.0000000000     0.0000000000    -37.745002595      4.163887594     -0.000000000
       H     0.7000000000     0.0000000000     0.0000000000     36.901046480     -0.235774076     -0.000000000
       H    -0.2630900000     1.0289700000     0.0000000000      0.843956115     -3.928113518     -0.000000000
       3
Lattice="15.0 0.0 0.0 0.0 15.0 0.0 0.0 0.0 15.0" Properties=species:S:1:pos:R:3:forces:R:3 energy=        3.8031433007 pbc="T T T"
       O     0.0000000000     0.0000000000     0.0000000000    -37.948652059      4.607605394     -0.000000000
       H     0.7000000000     0.0000000000     0.0000000000     36.917376952     -0.159426778     -0.000000000
       H    -0.2690700000     1.0523600000     0.0000000000      1.031275107     -4.448178616     -0.000000000
       3
Lattice="15.0 0.0 0.0 0.0 15.0 0.0 0.0 0.0 15.0" Properties=species:S:1:pos:R:3:forces:R:3 energy=        3.9188167420 pbc="T T T"
       O     0.0000000000     0.0000000000     0.0000000000    -38.124579876      4.958378592     -0.000000000
       H     0.7000000000     0.0000000000     0.0000000000     36.934230490     -0.085439238     -0.000000000
       H    -0.2750500000     1.0757300000     0.0000000000      1.190349386     -4.872939406     -0.000000000
       3
Lattice="15.0 0.0 0.0 0.0 15.0 0.0 0.0 0.0 15.0" Properties=species:S:1:pos:R:3:forces:R:3 energy=        4.0444095879 pbc="T T T"
       O     0.0000000000     0.0000000000     0.0000000000    -38.276370731      5.229532453     -0.000000000
       H     0.7000000000     0.0000000000     0.0000000000     36.951631570     -0.013871365     -0.000000000
       H    -0.2810300000     1.0991200000     0.0000000000      1.324739161     -5.215661140     -0.000000000
       3
Lattice="15.0 0.0 0.0 0.0 15.0 0.0 0.0 0.0 15.0" Properties=species:S:1:pos:R:3:forces:R:3 energy=        4.1778966338 pbc="T T T"
       O     0.0000000000     0.0000000000     0.0000000000    -38.406817922      5.431704613     -0.000000000
       H     0.7000000000     0.0000000000     0.0000000000     36.969524657      0.055138825     -0.000000000
       H    -0.2870100000     1.1225100000     0.0000000000      1.437293317     -5.486843437     -0.000000000
       3
Lattice="15.0 0.0 0.0 0.0 15.0 0.0 0.0 0.0 15.0" Properties=species:S:1:pos:R:3:forces:R:3 energy=        4.3175948881 pbc="T T T"
       O     0.0000000000     0.0000000000     0.0000000000    -38.518435322      5.574408104     -0.000000000
       H     0.7000000000     0.0000000000     0.0000000000     36.987857454      0.121495018     -0.000000000
       H    -0.2929900000     1.1459000000     0.0000000000      1.530577869     -5.695903122     -0.000000000
       3
Lattice="15.0 0.0 0.0 0.0 15.0 0.0 0.0 0.0 15.0" Properties=species:S:1:pos:R:3:forces:R:3 energy=        4.4619824043 pbc="T T T"
       O     0.0000000000     0.0000000000     0.0000000000    -38.613384304      5.665856065     -0.000000000
       H     0.7000000000     0.0000000000     0.0000000000     37.006560850      0.185096221     -0.000000000
       H    -0.2989700000     1.1692800000     0.0000000000      1.606823506     -5.850952286     -0.000000000
       3
Lattice="15.0 0.0 0.0 0.0 15.0 0.0 0.0 0.0 15.0" Properties=species:S:1:pos:R:3:forces:R:3 energy=        4.6098428689 pbc="T T T"
       O     0.0000000000     0.0000000000     0.0000000000    -38.693585792      5.713301117     -0.000000000
       H     0.7000000000     0.0000000000     0.0000000000     37.025572727      0.245884173     -0.000000000
       H    -0.3049500000     1.1926600000     0.0000000000      1.668013065     -5.959185290     -0.000000000
       3
Lattice="15.0 0.0 0.0 0.0 15.0 0.0 0.0 0.0 15.0" Properties=species:S:1:pos:R:3:forces:R:3 energy=        4.7601312994 pbc="T T T"
       O     0.0000000000     0.0000000000     0.0000000000    -38.760694495      5.722999837     -0.000000000
       H     0.7000000000     0.0000000000     0.0000000000     37.044827984      0.303806527     -0.000000000
       H    -0.3109300000     1.2160500000     0.0000000000      1.715866511     -6.026806363     -0.000000000
       3
Lattice="15.0 0.0 0.0 0.0 15.0 0.0 0.0 0.0 15.0" Properties=species:S:1:pos:R:3:forces:R:3 energy=        4.9118276415 pbc="T T T"
       O     0.0000000000     0.0000000000     0.0000000000    -38.816134088      5.700366765     -0.000000000
       H     0.7000000000     0.0000000000     0.0000000000     37.064240748      0.358796176     -0.000000000
       H    -0.3169100000     1.2394400000     0.0000000000      1.751893288     -6.059162941     -0.000000000
       3
Lattice="15.0 0.0 0.0 0.0 15.0 0.0 0.0 0.0 15.0" Properties=species:S:1:pos:R:3:forces:R:3 energy=        5.0640363985 pbc="T T T"
       O     0.0000000000     0.0000000000     0.0000000000    -38.861165027      5.650176956     -0.000000000
       H     0.7000000000     0.0000000000     0.0000000000     37.083724988      0.410797996     -0.000000000
       H    -0.3228900000     1.2628200000     0.0000000000      1.777439987     -6.060974952     -0.000000000
       3
Lattice="15.0 0.0 0.0 0.0 15.0 0.0 0.0 0.0 15.0" Properties=species:S:1:pos:R:3:forces:R:3 energy=        5.2161547620 pbc="T T T"
       O     0.0000000000     0.0000000000     0.0000000000    -38.896893556      5.576572100     -0.000000000
       H     0.7000000000     0.0000000000     0.0000000000     37.103222856      0.459795635     -0.000000000
       H    -0.3288700000     1.2862100000     0.0000000000      1.793670701     -6.036367735     -0.000000000
       3
Lattice="15.0 0.0 0.0 0.0 15.0 0.0 0.0 0.0 15.0" Properties=species:S:1:pos:R:3:forces:R:3 energy=        5.3674168648 pbc="T T T"
       O     0.0000000000     0.0000000000     0.0000000000    -38.924226967      5.483269808     -0.000000000
       H     0.7000000000     0.0000000000     0.0000000000     37.122644155      0.505698281     -0.000000000
       H    -0.3348400000     1.3095900000     0.0000000000      1.801582811     -5.988968037     -0.000000000
       3
Lattice="15.0 0.0 0.0 0.0 15.0 0.0 0.0 0.0 15.0" Properties=species:S:1:pos:R:3:forces:R:3 energy=        5.5174361556 pbc="T T T"
       O     0.0000000000     0.0000000000     0.0000000000    -38.944130760      5.373269941     -0.000000000
       H     0.7000000000     0.0000000000     0.0000000000     37.141930266      0.548586102     -0.000000000
       H    -0.3408200000     1.3329800000     0.0000000000      1.802200494     -5.921856042     -0.000000000
       3
Lattice="15.0 0.0 0.0 0.0 15.0 0.0 0.0 0.0 15.0" Properties=species:S:1:pos:R:3:forces:R:3 energy=        5.6656651549 pbc="T T T"
       O     0.0000000000     0.0000000000     0.0000000000    -38.957285095      5.249406165     -0.000000000
       H     0.7000000000     0.0000000000     0.0000000000     37.161006267      0.588388083     -0.000000000
       H    -0.3468000000     1.3563700000     0.0000000000      1.796278829     -5.837794248     -0.000000000
       3
Lattice="15.0 0.0 0.0 0.0 15.0 0.0 0.0 0.0 15.0" Properties=species:S:1:pos:R:3:forces:R:3 energy=        6.0820715090 pbc="T T T"
       O     0.0000000000     0.0000000000     0.0000000000    -19.524740109    -33.773198454     -0.000000000
       H     0.7241400000     0.0000000000     0.0000000000     29.999824179     -1.390155204     -0.000000000
       H    -0.1734000000     0.6781800000     0.0000000000    -10.475084070     35.163353658     -0.000000000
       3
Lattice="15.0 0.0 0.0 0.0 15.0 0.0 0.0 0.0 15.0" Properties=species:S:1:pos:R:3:forces:R:3 energy=        5.2794620651 pbc="T T T"
       O     0.0000000000     0.0000000000     0.0000000000    -21.314723743    -27.445722929     -0.000000000
       H     0.7241400000     0.0000000000     0.0000000000     30.022515564     -1.312546161     -0.000000000
       H    -0.1793800000     0.7015700000     0.0000000000     -8.707791820     28.758269090     -0.000000000
       3
Lattice="15.0 0.0 0.0 0.0 15.0 0.0 0.0 0.0 15.0" Properties=species:S:1:pos:R:3:forces:R:3 energy=        4.6248915246 pbc="T T T"
       O     0.0000000000     0.0000000000     0.0000000000    -22.850937884    -22.079611766     -0.000000000
       H     0.7241400000     0.0000000000     0.0000000000     30.043271010     -1.233069828     -0.000000000
       H    -0.1853600000     0.7249600000     0.0000000000     -7.192333177     23.312681594     -0.000000000
       3
Lattice="15.0 0.0 0.0 0.0 15.0 0.0 0.0 0.0 15.0" Properties=species:S:1:pos:R:3:forces:R:3 energy=        4.0965109947 pbc="T T T"
       O     0.0000000000     0.0000000000     0.0000000000    -24.171308327    -17.527676232     -0.000000000
       H     0.7241400000     0.0000000000     0.0000000000     30.062375601     -1.152155939     -0.000000000
       H    -0.1913400000     0.7483400000     0.0000000000     -5.891067273     18.679832172     -0.000000000
       3
Lattice="15.0 0.0 0.0 0.0 15.0 0.0 0.0 0.0 15.0" Properties=species:S:1:pos:R:3:forces:R:3 energy=        3.6753969593 pbc="T T T"
       O     0.0000000000     0.0000000000     0.0000000000    -25.308557878    -13.663843718     -0.000000000
       H     0.7241400000     0.0000000000     0.0000000000     30.080089378     -1.070189286     -0.000000000
       H    -0.1973200000     0.7717200000     0.0000000000     -4.771531450     14.734033004     -0.000000000
       3
Lattice="15.0 0.0 0.0 0.0 15.0 0.0 0.0 0.0 15.0" Properties=species:S:1:pos:R:3:forces:R:3 energy=        3.3456114347 pbc="T T T"
       O     0.0000000000     0.0000000000     0.0000000000    -26.289825879    -10.383462817     -0.000000000
       H     0.7241400000     0.0000000000     0.0000000000     30.096630784     -0.987525504     -0.000000000
       H    -0.2033000000     0.7951100000     0.0000000000     -3.806804854     11.370988269     -0.000000000
       3
Lattice="15.0 0.0 0.0 0.0 15.0 0.0 0.0 0.0 15.0" Properties=species:S:1:pos:R:3:forces:R:3 energy=        3.0938554629 pbc="T T T"
       O     0.0000000000     0.0000000000     0.0000000000    -27.137100158     -7.601290107     -0.000000000
       H     0.7241400000     0.0000000000     0.0000000000     30.112173059     -0.904522284     -0.000000000
       H    -0.2092800000     0.8185000000     0.0000000000     -2.975072952      8.505812443     -0.000000000
       3
Lattice="15.0 0.0 0.0 0.0 15.0 0.0 0.0 0.0 15.0" Properties=species:S:1:pos:R:3:forces:R:3 energy=        2.9086258441 pbc="T T T"
       O     0.0000000000     0.0000000000     0.0000000000    -27.869401952     -5.244072614     -0.000000000
       H     0.7241400000     0.0000000000     0.0000000000     30.126899625     -0.821509140     -0.000000000
       H    -0.2152600000     0.8418900000     0.0000000000     -2.257497673      6.065581754     -0.000000000
       3
Lattice="15.0 0.0 0.0 0.0 15.0 0.0 0.0 0.0 15.0" Properties=species:S:1:pos:R:3:forces:R:3 energy=        2.7801718978 pbc="T T T"
       O     0.0000000000     0.0000000000     0.0000000000    -28.502395302     -3.251369947     -0.000000000
       H     0.7241400000     0.0000000000     0.0000000000     30.140981975     -0.738825097     -0.000000000
       H    -0.2212400000     0.8652600000     0.0000000000     -1.638586724      3.990195044     -0.000000000
       3
Lattice="15.0 0.0 0.0 0.0 15.0 0.0 0.0 0.0 15.0" Properties=species:S:1:pos:R:3:forces:R:3 energy=        2.6998838408 pbc="T T T"
       O     0.0000000000     0.0000000000     0.0000000000    -29.050829400     -1.567474811     -0.000000000
       H     0.7241400000     0.0000000000     0.0000000000     30.154664724     -0.656703715     -0.000000000
       H    -0.2272200000     0.8886500000     0.0000000000     -1.103835323      2.224178525     -0.000000000
       3
Lattice="15.0 0.0 0.0 0.0 15.0 0.0 0.0 0.0 15.0" Properties=species:S:1:pos:R:3:forces:R:3 energy=        2.6606740622 pbc="T T T"
       O     0.0000000000     0.0000000000     0.0000000000    -29.525791260     -0.149654010     -0.000000000
       H     0.7241400000     0.0000000000     0.0000000000     30.168148572     -0.575514975     -0.000000000
       H    -0.2331900000     0.9120400000     0.0000000000     -0.642357364      0.725169036     -0.000000000
       3
Lattice="15.0 0.0 0.0 0.0 15.0 0.0 0.0 0.0 15.0" Properties=species:S:1:pos:R:3:forces:R:3 energy=        2.6563300120 pbc="T T T"
       O     0.0000000000     0.0000000000     0.0000000000    -29.937447439      1.040174933     -0.000000000
       H     0.7241400000     0.0000000000     0.0000000000     30.181605938     -0.495346089     -0.000000000
       H    -0.2391700000     0.9354300000     0.0000000000     -0.244158499     -0.544828844     -0.000000000
       3
Lattice="15.0 0.0 0.0 0.0 15.0 0.0 0.0 0.0 15.0" Properties=species:S:1:pos:R:3:forces:R:3 energy=        2.6815179703 pbc="T T T"
       O     0.0000000000     0.0000000000     0.0000000000    -30.294161483      2.033773025     -0.000000000
       H     0.7241400000     0.0000000000     0.0000000000     30.195227855     -0.416511967     -0.000000000
       H    -0.2451500000     0.9588100000     0.0000000000      0.098933628     -1.617261007     -0.000000000
       3
Lattice="15.0 0.0 0.0 0.0 15.0 0.0 0.0 0.0 15.0" Properties=species:S:1:pos:R:3:forces:R:3 energy=        2.7316456264 pbc="T T T"
       O     0.0000000000     0.0000000000     0.0000000000    -30.603401627      2.859120670     -0.000000000
       H     0.7241400000     0.0000000000     0.0000000000     30.209177947     -0.339196750     -0.000000000
       H    -0.2511300000     0.9821900000     0.0000000000      0.394223731     -2.519923971     -0.000000000
       3
Lattice="15.0 0.0 0.0 0.0 15.0 0.0 0.0 0.0 15.0" Properties=species:S:1:pos:R:3:forces:R:3 energy=        2.8027890794 pbc="T T T"
       O     0.0000000000     0.0000000000     0.0000000000    -30.871489086      3.539907456     -0.000000000
       H     0.7241400000     0.0000000000     0.0000000000     30.223582559     -0.263565606     -0.000000000
       H    -0.2571100000     1.0055800000     0.0000000000      0.647906527     -3.276341850     -0.000000000
       3
Lattice="15.0 0.0 0.0 0.0 15.0 0.0 0.0 0.0 15.0" Properties=species:S:1:pos:R:3:forces:R:3 energy=        2.8915083639 pbc="T T T"
       O     0.0000000000     0.0000000000     0.0000000000    -31.103643768      4.095820743     -0.000000000
       H     0.7241400000     0.0000000000     0.0000000000     30.238511574     -0.189798154     -0.000000000
       H    -0.2630900000     1.0289700000     0.0000000000      0.865132194     -3.906022641     -0.000000000
       3
Lattice="15.0 0.0 0.0 0.0 15.0 0.0 0.0 0.0 15.0" Properties=species:S:1:pos:R:3:forces:R:3 energy=        2.9948400212 pbc="T T T"
       O     0.0000000000     0.0000000000     0.0000000000    -31.304435346      4.544064303     -0.000000000
       H     0.7241400000     0.0000000000     0.0000000000     30.254006900     -0.118043978     -0.000000000
       H    -0.2690700000     1.0523600000     0.0000000000      1.050428498     -4.426020324     -0.000000000
       3
Lattice="15.0 0.0 0.0 0.0 15.0 0.0 0.0 0.0 15.0" Properties=species:S:1:pos:R:3:forces:R:3 energy=        3.1101186988 pbc="T T T"
       O     0.0000000000     0.0000000000     0.0000000000    -31.477688341      4.899146724     -0.000000000
       H     0.7241400000     0.0000000000     0.0000000000     30.270061339     -0.048468968     -0.000000000
       H    -0.2750500000     1.0757300000     0.0000000000      1.207627002     -4.850677756     -0.000000000
       3
Lattice="15.0 0.0 0.0 0.0 15.0 0.0 0.0 0.0 15.0" Properties=species:S:1:pos:R:3:forces:R:3 energy=        3.2353030855 pbc="T T T"
       O     0.0000000000     0.0000000000     0.0000000000    -31.626973037      5.174425665     -0.000000000
       H     0.7241400000     0.0000000000     0.0000000000     30.286693504      0.018861673     -0.000000000
       H    -0.2810300000     1.0991200000     0.0000000000      1.340279533     -5.193287338     -0.000000000
       3
Lattice="15.0 0.0 0.0 0.0 15.0 0.0 0.0 0.0 15.0" Properties=species:S:1:pos:R:3:forces:R:3 energy=        3.3683693726 pbc="T T T"
       O     0.0000000000     0.0000000000     0.0000000000    -31.755074816      5.380568895     -0.000000000
       H     0.7241400000     0.0000000000     0.0000000000     30.303845805      0.083807564     -0.000000000
       H    -0.2870100000     1.1225100000     0.0000000000      1.451229011     -5.464376459     -0.000000000
       3
Lattice="15.0 0.0 0.0 0.0 15.0 0.0 0.0 0.0 15.0" Properties=species:S:1:pos:R:3:forces:R:3 energy=        3.5076357387 pbc="T T T"
       O     0.0000000000     0.0000000000     0.0000000000    -31.864499012      5.527100247     -0.000000000
       H     0.7241400000     0.0000000000     0.0000000000     30.321468720      0.146267762     -0.000000000
       H    -0.2929900000     1.1459000000     0.0000000000      1.543030293     -5.673368009     -0.000000000
       3
Lattice="15.0 0.0 0.0 0.0 15.0 0.0 0.0 0.0 15.0" Properties=species:S:1:pos:R:3:forces:R:3 energy=        3.6515819923 pbc="T T T"
       O     0.0000000000     0.0000000000     0.0000000000    -31.957400161      5.622249826     -0.000000000
       H     0.7241400000     0.0000000000     0.0000000000     30.339492778      0.206138859     -0.000000000
       H    -0.2989700000     1.1692800000     0.0000000000      1.617907383     -5.828388685     -0.000000000
       3
Lattice="15.0 0.0 0.0 0.0 15.0 0.0 0.0 0.0 15.0" Properties=species:S:1:pos:R:3:forces:R:3 energy=        3.7989932840 pbc="T T T"
       O     0.0000000000     0.0000000000     0.0000000000    -32.035691729      5.673283163     -0.000000000
       H     0.7241400000     0.0000000000     0.0000000000     30.357857303      0.263357244     -0.000000000
       H    -0.3049500000     1.1926600000     0.0000000000      1.677834427     -5.936640458     -0.000000000
       3
Lattice="15.0 0.0 0.0 0.0 15.0 0.0 0.0 0.0 15.0" Properties=species:S:1:pos:R:3:forces:R:3 energy=        3.9488261877 pbc="T T T"
       O     0.0000000000     0.0000000000     0.0000000000    -32.101022257      5.686466655     -0.000000000
       H     0.7241400000     0.0000000000     0.0000000000     30.376498786      0.317866148     -0.000000000
       H    -0.3109300000     1.2160500000     0.0000000000      1.724523471     -6.004332803     -0.000000000
       3
Lattice="15.0 0.0 0.0 0.0 15.0 0.0 0.0 0.0 15.0" Properties=species:S:1:pos:R:3:forces:R:3 energy=        4.1000626982 pbc="T T T"
       O     0.0000000000     0.0000000000     0.0000000000    -32.154811149      5.667220036     -0.000000000
       H     0.7241400000     0.0000000000     0.0000000000     30.395333874      0.369595945     -0.000000000
       H    -0.3169100000     1.2394400000     0.0000000000      1.759477326     -6.036815930     -0.000000000
       3
Lattice="15.0 0.0 0.0 0.0 15.0 0.0 0.0 0.0 15.0" Properties=species:S:1:pos:R:3:forces:R:3 energy=        4.2518093705 pbc="T T T"
       O     0.0000000000     0.0000000000     0.0000000000    -32.198315315      5.620321447     -0.000000000
       H     0.7241400000     0.0000000000     0.0000000000     30.414279005      0.418489609     -0.000000000
       H    -0.3228900000     1.2628200000     0.0000000000      1.784036310     -6.038811004     -0.000000000
       3
Lattice="15.0 0.0 0.0 0.0 15.0 0.0 0.0 0.0 15.0" Properties=species:S:1:pos:R:3:forces:R:3 energy=        4.4034647731 pbc="T T T"
       O     0.0000000000     0.0000000000     0.0000000000    -32.232636319      5.549917101     -0.000000000
       H     0.7241400000     0.0000000000     0.0000000000     30.433278181      0.464526621     -0.000000000
       H    -0.3288700000     1.2862100000     0.0000000000      1.799358138     -6.014443722     -0.000000000
       3
Lattice="15.0 0.0 0.0 0.0 15.0 0.0 0.0 0.0 15.0" Properties=species:S:1:pos:R:3:forces:R:3 energy=        4.5542651885 pbc="T T T"
       O     0.0000000000     0.0000000000     0.0000000000    -32.258679652      5.459722657     -0.000000000
       H     0.7241400000     0.0000000000     0.0000000000     30.452243778      0.507617559     -0.000000000
       H    -0.3348400000     1.3095900000     0.0000000000      1.806435874     -5.967340216     -0.000000000
       3
Lattice="15.0 0.0 0.0 0.0 15.0 0.0 0.0 0.0 15.0" Properties=species:S:1:pos:R:3:forces:R:3 energy=        4.7038254668 pbc="T T T"
       O     0.0000000000     0.0000000000     0.0000000000    -32.277405931      5.352742552     -0.000000000
       H     0.7241400000     0.0000000000     0.0000000000     30.471123398      0.547829786     -0.000000000
       H    -0.3408200000     1.3329800000     0.0000000000      1.806282533     -5.900572338     -0.000000000
       3
Lattice="15.0 0.0 0.0 0.0 15.0 0.0 0.0 0.0 15.0" Properties=species:S:1:pos:R:3:forces:R:3 energy=        4.8515999244 pbc="T T T"
       O     0.0000000000     0.0000000000     0.0000000000    -32.289493515      5.231806287     -0.000000000
       H     0.7241400000     0.0000000000     0.0000000000     30.489828542      0.585113216     -0.000000000
       H    -0.3468000000     1.3563700000     0.0000000000      1.799664973     -5.816919503     -0.000000000
       3
Lattice="15.0 0.0 0.0 0.0 15.0 0.0 0.0 0.0 15.0" Properties=species:S:1:pos:R:3:forces:R:3 energy=        5.4280827070 pbc="T T T"
       O     0.0000000000     0.0000000000     0.0000000000    -13.952866754    -33.941866655     -0.000000000
       H     0.7482800000     0.0000000000     0.0000000000     24.350619615     -1.265111908     -0.000000000
       H    -0.1734000000     0.6781800000     0.0000000000    -10.397752861     35.206978563     -0.000000000
       3
Lattice="15.0 0.0 0.0 0.0 15.0 0.0 0.0 0.0 15.0" Properties=species:S:1:pos:R:3:forces:R:3 energy=        4.6249522495 pbc="T T T"
       O     0.0000000000     0.0000000000     0.0000000000    -15.735542024    -27.605153357     -0.000000000
       H     0.7482800000     0.0000000000     0.0000000000     24.371494411     -1.193231028     -0.000000000
       H    -0.1793800000     0.7015700000     0.0000000000     -8.635952336     28.798384386     -0.000000000
       3
Lattice="15.0 0.0 0.0 0.0 15.0 0.0 0.0 0.0 15.0" Properties=species:S:1:pos:R:3:forces:R:3 energy=        3.9699057409 pbc="T T T"
       O     0.0000000000     0.0000000000     0.0000000000    -17.264879335    -22.230196875     -0.000000000
       H     0.7482800000     0.0000000000     0.0000000000     24.390532513     -1.119515255     -0.000000000
       H    -0.1853600000     0.7249600000     0.0000000000     -7.125653127     23.349712130     -0.000000000
       3
Lattice="15.0 0.0 0.0 0.0 15.0 0.0 0.0 0.0 15.0" Properties=species:S:1:pos:R:3:forces:R:3 energy=        3.4410875050 pbc="T T T"