       3
Lattice="15.0 0.0 0.0 0.0 15.0 0.0 0.0 0.0 15.0" Properties=species:S:1:pos:R:3:forces:R:3 energy=        0.3911733610 pbc="T T T"
       O    -0.0129854700    -0.0074068700     0.0000000000      4.224156081     -1.133458662     -0.000000000
       H     1.0170770000     0.1381428700     0.0000000000     -2.437540902     -1.720337919     -0.000000000
       H    -0.0896708500     0.9083563800     0.0000000000     -1.786615230      2.853796530     -0.000000000
