       3
Lattice="15.0 0.0 0.0 0.0 15.0 0.0 0.0 0.0 15.0" Properties=species:S:1:pos:R:3:forces:R:3 energy=        0.6804321058 pbc="T T T"
       O    -0.0141380100    -0.0205385500     0.0000000000      3.221213361      5.129786922     -0.000000000
       H     0.9826875200     0.2204287100     0.0000000000     -1.378069882     -2.347642238     -0.000000000
       H    -0.0369874200     1.0344795000     0.0000000000     -1.843143480     -2.782144684     -0.000000000
