       3
Lattice="15.0 0.0 0.0 0.0 15.0 0.0 0.0 0.0 15.0" Properties=species:S:1:pos:R:3:forces:R:3 energy=        1.6107555911 pbc="T T T"
       O     0.0009936100    -0.0277330600     0.0000000000     -6.829792342      5.365504486     -0.000000000
       H     0.8506379300     0.1591561400     0.0000000000      7.135284844      0.172339121     -0.000000000
       H    -0.1450890000     1.2099341700     0.0000000000     -0.305492503     -5.537843606     -0.000000000
