       3
Lattice="15.0 0.0 0.0 0.0 15.0 0.0 0.0 0.0 15.0" Properties=species:S:1:pos:R:3:forces:R:3 energy=        0.8841117328 pbc="T T T"
       O    -0.0215854600    -0.0155443200     0.0000000000      5.756572238      2.591545837     -0.000000000
       H     1.0901975200     0.2129902200     0.0000000000     -3.914984636     -2.425773060     -0.000000000
       H    -0.0263013400     0.9626563500     0.0000000000     -1.841587601     -0.165772777     -0.000000000
