       3
Lattice="15.0 0.0 0.0 0.0 15.0 0.0 0.0 0.0 15.0" Properties=species:S:1:pos:R:3:forces:R:3 energy=        2.5758427051 pbc="T T T"
       O    -0.0111143200     0.0205209300     0.0000000000      5.187626795     -5.155588571     -0.000000000
       H     1.3485239700    -0.2302934800     0.0000000000     -5.848210820      2.373559690     -0.000000000
       H    -0.4508241900     0.8335614300     0.0000000000      0.660584025      2.782028882     -0.000000000
