       3
Lattice="15.0 0.0 0.0 0.0 15.0 0.0 0.0 0.0 15.0" Properties=species:S:1:pos:R:3:forces:R:3 energy=        3.4396144085 pbc="T T T"
       O     0.0236270500     0.0111825200     0.0000000000    -35.913789400      6.285715031     -0.000000000
       H     0.7126334600    -0.1352368800     0.0000000000     34.600058628     -5.901090775     -0.000000000
       H    -0.3663018500     0.8867093600     0.0000000000      1.313730772     -0.384624205     -0.000000000
