       3
Lattice="15.0 0.0 0.0 0.0 15.0 0.0 0.0 0.0 15.0" Properties=species:S:1:pos:R:3:forces:R:3 energy=        0.8247406491 pbc="T T T"
       O     0.0050645200     0.0160831500     0.0000000000      3.327090257    -12.374154160     -0.000000000
       H     0.9421946300    -0.1001738300     0.0000000000      0.359624586      0.767996950     -0.000000000
       H    -0.3012614000     0.7738702200     0.0000000000     -3.686714842     11.606157159     -0.000000000
