       3
Lattice="15.0 0.0 0.0 0.0 15.0 0.0 0.0 0.0 15.0" Properties=species:S:1:pos:R:3:forces:R:3 energy=        1.9426001686 pbc="T T T"
       O     0.0171002500     0.0028871900     0.0000000000     -2.155003682      2.658485825     -0.000000000
       H     0.9991307300    -0.2511340500     0.0000000000     -1.984796727      2.378211075     -0.000000000
       H    -0.5492169200     1.1342613400     0.0000000000      4.139800409     -5.036696900     -0.000000000
