       3
Lattice="15.0 0.0 0.0 0.0 15.0 0.0 0.0 0.0 15.0" Properties=species:S:1:pos:R:3:forces:R:3 energy=        2.2787454186 pbc="T T T"
       O    -0.0034237600     0.0263402400     0.0000000000      9.936966939    -13.126008020     -0.000000000
       H     1.2007253300    -0.2286393600     0.0000000000     -6.201826735      2.738377237     -0.000000000
       H    -0.4250803700     0.7395498900     0.0000000000     -3.735140205     10.387630783     -0.000000000
