       3
Lattice="15.0 0.0 0.0 0.0 15.0 0.0 0.0 0.0 15.0" Properties=species:S:1:pos:R:3:forces:R:3 energy=        1.7577060526 pbc="T T T"
       O    -0.0176949100     0.0075738600     0.0000000000      8.452469637    -11.464243202     -0.000000000
       H     1.2125638000    -0.0028221500     0.0000000000     -6.075514856      0.254074426     -0.000000000
       H    -0.2104193400     0.8115678000     0.0000000000     -2.376954781     11.210168776     -0.000000000
