       3
Lattice="15.0 0.0 0.0 0.0 15.0 0.0 0.0 0.0 15.0" Properties=species:S:1:pos:R:3:forces:R:3 energy=        1.7399188240 pbc="T T T"
       O     0.0001415800     0.0239066600     0.0000000000     10.221477225    -15.271405954     -0.000000000
       H     1.0991215900    -0.1860126700     0.0000000000     -5.361581289      2.348070018     -0.000000000
       H    -0.3800599500     0.7355452800     0.0000000000     -4.859895936     12.923335936     -0.000000000
