       3
Lattice="15.0 0.0 0.0 0.0 15.0 0.0 0.0 0.0 15.0" Properties=species:S:1:pos:R:3:forces:R:3 energy=        1.3616501580 pbc="T T T"
       O    -0.0183223800    -0.0006229800     0.0000000000      6.834915987    -10.814830779     -0.000000000
       H     1.0957530300     0.1214452000     0.0000000000     -4.336764385     -1.582522250     -0.000000000
       H    -0.0836468100     0.8173891200     0.0000000000     -2.498151602     12.397353029     -0.000000000
