       3
Lattice="15.0 0.0 0.0 0.0 15.0 0.0 0.0 0.0 15.0" Properties=species:S:1:pos:R:3:forces:R:3 energy=        2.4102678949 pbc="T T T"
       O    -0.0116946400    -0.0431851700     0.0000000000      2.816427533      7.161851140     -0.000000000
       H     0.9861909300     0.2589553100     0.0000000000     -2.175592777     -1.912345885     -0.000000000
       H    -0.0792674800     1.3553714300     0.0000000000     -0.640834807     -5.249505306     -0.000000000
