       3
Lattice="15.0 0.0 0.0 0.0 15.0 0.0 0.0 0.0 15.0" Properties=species:S:1:pos:R:3:forces:R:3 energy=        0.5776794387 pbc="T T T"
       O     0.0183303600     0.0173931200     0.0000000000     -6.073058937      0.001177771     -0.000000000
       H     0.8806260000    -0.2199801300     0.0000000000      3.932316554      0.674310535     -0.000000000
       H    -0.4502343200     0.8728868800     0.0000000000      2.140742383     -0.675488306     -0.000000000
