       3
Lattice="15.0 0.0 0.0 0.0 15.0 0.0 0.0 0.0 15.0" Properties=species:S:1:pos:R:3:forces:R:3 energy=        2.1037578688 pbc="T T T"
       O     0.0071445900    -0.0051209700     0.0000000000    -22.306219238     -2.212600277     -0.000000000
       H     0.7535806100     0.0874684200     0.0000000000     24.119329184      0.988554408     -0.000000000
       H    -0.1456544600     0.9227512800     0.0000000000     -1.813109947      1.224045869     -0.000000000
