       3
Lattice="15.0 0.0 0.0 0.0 15.0 0.0 0.0 0.0 15.0" Properties=species:S:1:pos:R:3:forces:R:3 energy=        0.8207505647 pbc="T T T"
       O     0.0061641300     0.0169515600     0.0000000000      2.571694598     -2.277311374     -0.000000000
       H     1.0737055200    -0.2185829800     0.0000000000     -4.608621237      2.545875156     -0.000000000
       H    -0.4502269000     0.8784984100     0.0000000000      2.036926639     -0.268563782     -0.000000000
