       3
Lattice="15.0 0.0 0.0 0.0 15.0 0.0 0.0 0.0 15.0" Properties=species:S:1:pos:R:3:forces:R:3 energy=        1.3029678163 pbc="T T T"
       O    -0.0119866800    -0.0145859300     0.0000000000      4.212783623      5.265676936     -0.000000000
       H     1.1493984500     0.0457042100     0.0000000000     -5.308062414     -0.196365526     -0.000000000
       H    -0.2378460500     1.1147331900     0.0000000000      1.095278842     -5.069311410     -0.000000000
