       3
Lattice="15.0 0.0 0.0 0.0 15.0 0.0 0.0 0.0 15.0" Properties=species:S:1:pos:R:3:forces:R:3 energy=        4.4394820575 pbc="T T T"
       O    -0.0179680900     0.0009915100     0.0000000000      1.552763723    -33.990887948     -0.000000000
       H     0.9659628200     0.2127768300     0.0000000000      0.425863896     -3.546315626     -0.000000000
       H     0.0405228500     0.7004333500     0.0000000000     -1.978627619     37.537203522     -0.000000000
