       3
Lattice="15.0 0.0 0.0 0.0 15.0 0.0 0.0 0.0 15.0" Properties=species:S:1:pos:R:3:forces:R:3 energy=        2.6421165500 pbc="T T T"
       O     0.0138423200    -0.0137885000     0.0000000000    -24.574890262      4.613443755     -0.000000000
       H     0.7677519800     0.0212324400     0.0000000000     23.319215130      0.925581994     -0.000000000
       H    -0.2661252400     1.1265477800     0.0000000000      1.255675080     -5.539025749     -0.000000000
