       3
Lattice="15.0 0.0 0.0 0.0 15.0 0.0 0.0 0.0 15.0" Properties=species:S:1:pos:R:3:forces:R:3 energy=        2.0118356572 pbc="T T T"
       O    -0.0232837800    -0.0304640200     0.0000000000      5.648059960      7.327293376     -0.000000000
       H     1.1526446300     0.2324404500     0.0000000000     -4.876286881     -2.057223400     -0.000000000
       H    -0.0617940300     1.1799929000     0.0000000000     -0.771773131     -5.270069976     -0.000000000
