       3
Lattice="15.0 0.0 0.0 0.0 15.0 0.0 0.0 0.0 15.0" Properties=species:S:1:pos:R:3:forces:R:3 energy=        1.2099663712 pbc="T T T"
       O    -0.0185701400    -0.0042090600     0.0000000000      5.590624265      1.164698095     -0.000000000
       H     1.2303751800     0.0312609800     0.0000000000     -5.950439318     -0.062657557     -0.000000000
       H    -0.2143391300     0.9644881400     0.0000000000      0.359815053     -1.102040538     -0.000000000
