       3
Lattice="15.0 0.0 0.0 0.0 15.0 0.0 0.0 0.0 15.0" Properties=species:S:1:pos:R:3:forces:R:3 energy=        2.3332961793 pbc="T T T"
       O     0.0262371200     0.0027731300     0.0000000000     -8.953025967      4.413260396     -0.000000000
       H     0.8780256100    -0.2693363800     0.0000000000      4.613311137      0.755770835     -0.000000000
       H    -0.5731209700     1.1542735400     0.0000000000      4.339714830     -5.169031231     -0.000000000
