       3
Lattice="15.0 0.0 0.0 0.0 15.0 0.0 0.0 0.0 15.0" Properties=species:S:1:pos:R:3:forces:R:3 energy=        2.1700921203 pbc="T T T"
       O    -0.0044315500     0.0170802300     0.0000000000      3.257809021     -1.514679496     -0.000000000
       H     1.2769537600    -0.2462343300     0.0000000000     -5.910879278      2.631921844     -0.000000000
       H    -0.4853146800     0.9041085200     0.0000000000      2.653070257     -1.117242347     -0.000000000
