       3
Lattice="15.0 0.0 0.0 0.0 15.0 0.0 0.0 0.0 15.0" Properties=species:S:1:pos:R:3:forces:R:3 energy=        0.7843660409 pbc="T T T"
       O    -0.0148566800    -0.0183675000     0.0000000000      2.397559406      2.657296073     -0.000000000
       H     0.9388942900     0.2564510200     0.0000000000      0.586496470     -2.913478444     -0.000000000
       H     0.0182124100     0.9640005800     0.0000000000     -2.984055876      0.256182320     -0.000000000
