       3
Lattice="15.0 0.0 0.0 0.0 15.0 0.0 0.0 0.0 15.0" Properties=species:S:1:pos:R:3:forces:R:3 energy=        0.7146656267 pbc="T T T"
       O     0.0074789300    -0.0013877700     0.0000000000    -11.895156798      0.689141230     -0.000000000
       H     0.8281997500     0.0136412700     0.0000000000     12.112478573     -0.173258599     -0.000000000
       H    -0.2255817700     0.9373305500     0.0000000000     -0.217321775     -0.515882631     -0.000000000
