       3
Lattice="15.0 0.0 0.0 0.0 15.0 0.0 0.0 0.0 15.0" Properties=species:S:1:pos:R:3:forces:R:3 energy=        1.7261346542 pbc="T T T"
       O    -0.0094024500     0.0031783600     0.0000000000      3.627248541      1.661132070     -0.000000000
       H     1.2528408100    -0.1224442300     0.0000000000     -6.033765366      1.553187029     -0.000000000
       H    -0.3823066500     1.0009506300     0.0000000000      2.406516774     -3.214319099     -0.000000000
