       3
Lattice="15.0 0.0 0.0 0.0 15.0 0.0 0.0 0.0 15.0" Properties=species:S:1:pos:R:3:forces:R:3 energy=        2.4376357001 pbc="T T T"
       O     0.0173533000     0.0062861400     0.0000000000    -28.252650204      1.916049612     -0.000000000
       H     0.7454465600    -0.0679709900     0.0000000000     27.895913226     -2.259213165     -0.000000000
       H    -0.2995442200     0.8971523500     0.0000000000      0.356736978      0.343163553     -0.000000000
