       3
Lattice="15.0 0.0 0.0 0.0 15.0 0.0 0.0 0.0 15.0" Properties=species:S:1:pos:R:3:forces:R:3 energy=        2.1867685774 pbc="T T T"
       O    -0.0113115900    -0.0400719000     0.0000000000      2.756427521      7.208985551     -0.000000000
       H     0.9900533900     0.2414254700     0.0000000000     -2.175513022     -1.821688745     -0.000000000
       H    -0.0892097100     1.3234915200     0.0000000000     -0.580914551     -5.387296806     -0.000000000
