       3
Lattice="15.0 0.0 0.0 0.0 15.0 0.0 0.0 0.0 15.0" Properties=species:S:1:pos:R:3:forces:R:3 energy=        0.2649362392 pbc="T T T"
       O     0.0055805000    -0.0014038000     0.0000000000     -6.559905161      1.414104527     -0.000000000
       H     0.8775551800    -0.0012376800     0.0000000000      6.271733263     -0.069635122     -0.000000000
       H    -0.2448081600     0.9524641200     0.0000000000      0.288171898     -1.344469353     -0.000000000
