       3
Lattice="15.0 0.0 0.0 0.0 15.0 0.0 0.0 0.0 15.0" Properties=species:S:1:pos:R:3:forces:R:3 energy=        3.2827355953 pbc="T T T"
       O    -0.0274173200    -0.0025609200     0.0000000000      5.015305106    -21.633399018     -0.000000000
       H     1.1175993400     0.2226733800     0.0000000000     -3.683660884     -3.023296534     -0.000000000
       H     0.0388527200     0.7469169800     0.0000000000     -1.331644221     24.656695552     -0.000000000
