       3
Lattice="15.0 0.0 0.0 0.0 15.0 0.0 0.0 0.0 15.0" Properties=species:S:1:pos:R:3:forces:R:3 energy=        2.2066180236 pbc="T T T"
       O    -0.0041601300     0.0229880100     0.0000000000      4.959931334     -4.987352728     -0.000000000
       H     1.2689414900    -0.2619728900     0.0000000000     -6.011169215      2.821058143     -0.000000000
       H    -0.4816105200     0.8260862700     0.0000000000      1.051237881      2.166294584     -0.000000000
