       3
Lattice="15.0 0.0 0.0 0.0 15.0 0.0 0.0 0.0 15.0" Properties=species:S:1:pos:R:3:forces:R:3 energy=        1.9464293031 pbc="T T T"
       O     0.0195543000     0.0061586000     0.0000000000    -23.993963009      4.690110899     -0.000000000
       H     0.7681741500    -0.1123426900     0.0000000000     22.073481687     -2.294815607     -0.000000000
       H    -0.3572043400     0.9435484700     0.0000000000      1.920481322     -2.395295292     -0.000000000
