       3
Lattice="15.0 0.0 0.0 0.0 15.0 0.0 0.0 0.0 15.0" Properties=species:S:1:pos:R:3:forces:R:3 energy=        1.2067508888 pbc="T T T"
       O     0.0070677300    -0.0143588800     0.0000000000     -3.982142654      5.245758899     -0.000000000
       H     0.9351692400    -0.0234836200     0.0000000000      1.961751558      0.514181897     -0.000000000
       H    -0.3260258900     1.1803172300     0.0000000000      2.020391096     -5.759940796     -0.000000000
