       3
Lattice="15.0 0.0 0.0 0.0 15.0 0.0 0.0 0.0 15.0" Properties=species:S:1:pos:R:3:forces:R:3 energy=        2.0217554292 pbc="T T T"
       O     0.0062493600    -0.0213679100     0.0000000000     -1.115763757      4.933038096     -0.000000000
       H     0.9909981200    -0.0346651600     0.0000000000     -0.993728447      0.702967910     -0.000000000
       H    -0.3688668500     1.3027375500     0.0000000000      2.109492204     -5.636006057     -0.000000000
