       3
Lattice="15.0 0.0 0.0 0.0 15.0 0.0 0.0 0.0 15.0" Properties=species:S:1:pos:R:3:forces:R:3 energy=        0.6220320523 pbc="T T T"
       O     0.0037439800    -0.0065883600     0.0000000000     -0.870836600      4.248256636     -0.000000000
       H     0.9876051700    -0.0477242500     0.0000000000     -1.202107921      0.688966087     -0.000000000
       H    -0.3257122600     1.0812343300     0.0000000000      2.072944521     -4.937222723     -0.000000000
