       3
Lattice="15.0 0.0 0.0 0.0 15.0 0.0 0.0 0.0 15.0" Properties=species:S:1:pos:R:3:forces:R:3 energy=        2.0800111671 pbc="T T T"
       O    -0.0296256500    -0.0048743700     0.0000000000      5.799321527     -0.089363463     -0.000000000
       H     1.3675689500     0.0630712800     0.0000000000     -5.778817793     -0.258478522     -0.000000000
       H    -0.1760730600     0.9432371900     0.0000000000     -0.020503683      0.347841986     -0.000000000
