       3
Lattice="15.0 0.0 0.0 0.0 15.0 0.0 0.0 0.0 15.0" Properties=species:S:1:pos:R:3:forces:R:3 energy=        1.7473815711 pbc="T T T"
       O     0.0132089500     0.0072734300     0.0000000000    -19.950831086     -2.603377854     -0.000000000
       H     0.7752535200    -0.0431527200     0.0000000000     21.055421337     -1.231573805     -0.000000000
       H    -0.2635766200     0.8566649100     0.0000000000     -1.104590251      3.834951659     -0.000000000
