       3
Lattice="15.0 0.0 0.0 0.0 15.0 0.0 0.0 0.0 15.0" Properties=species:S:1:pos:R:3:forces:R:3 energy=        0.9984618626 pbc="T T T"
       O     0.0064941900    -0.0116340900     0.0000000000     -3.236338397      5.035290660     -0.000000000
       H     0.9469499800    -0.0341491100     0.0000000000      1.138402176      0.563503444     -0.000000000
       H    -0.3287044500     1.1477383700     0.0000000000      2.097936169     -5.598794155     -0.000000000
