       3
Lattice="15.0 0.0 0.0 0.0 15.0 0.0 0.0 0.0 15.0" Properties=species:S:1:pos:R:3:forces:R:3 energy=        1.4818778411 pbc="T T T"
       O     0.0070683200    -0.0194434000     0.0000000000     -8.931187212      5.376015983     -0.000000000
       H     0.8635714900     0.0481275700     0.0000000000      7.806395177      0.430528291     -0.000000000
       H    -0.2544357100     1.1894004100     0.0000000000      1.124792035     -5.806544274     -0.000000000
