       3
Lattice="15.0 0.0 0.0 0.0 15.0 0.0 0.0 0.0 15.0" Properties=species:S:1:pos:R:3:forces:R:3 energy=        0.6080825434 pbc="T T T"
       O    -0.0158796400    -0.0160486600     0.0000000000      4.624397071      4.200517039     -0.000000000
       H     1.0514364300     0.1743598400     0.0000000000     -3.399558068     -1.916300038     -0.000000000
       H    -0.0780966300     1.0092909700     0.0000000000     -1.224839003     -2.284217001     -0.000000000
