       3
Lattice="15.0 0.0 0.0 0.0 15.0 0.0 0.0 0.0 15.0" Properties=species:S:1:pos:R:3:forces:R:3 energy=        1.7060668366 pbc="T T T"
       O    -0.0204588400     0.0004882000     0.0000000000      7.423271468    -12.780418528     -0.000000000
       H     1.1321721400     0.1159933000     0.0000000000     -4.900896309     -1.441483343     -0.000000000
       H    -0.0861589200     0.8052059000     0.0000000000     -2.522375159     14.221901871     -0.000000000
