       3
Lattice="15.0 0.0 0.0 0.0 15.0 0.0 0.0 0.0 15.0" Properties=species:S:1:pos:R:3:forces:R:3 energy=        0.3749157987 pbc="T T T"
       O    -0.0033707700    -0.0044544500     0.0000000000     -2.132427894     -2.612934958     -0.000000000
       H     0.8932262100     0.1065213600     0.0000000000      4.231041190     -1.100709683     -0.000000000
       H    -0.1184132300     0.8931206500     0.0000000000     -2.098613295      3.713644641     -0.000000000
