       3
Lattice="15.0 0.0 0.0 0.0 15.0 0.0 0.0 0.0 15.0" Properties=species:S:1:pos:R:3:forces:R:3 energy=        0.3499245951 pbc="T T T"
       O     0.0081679900     0.0089250200     0.0000000000     -4.818203833     -3.681588626     -0.000000000
       H     0.8815566200    -0.0687789400     0.0000000000      5.508829208      0.071838147     -0.000000000
       H    -0.2898767000     0.8560797100     0.0000000000     -0.690625375      3.609750478     -0.000000000
