       3
Lattice="15.0 0.0 0.0 0.0 15.0 0.0 0.0 0.0 15.0" Properties=species:S:1:pos:R:3:forces:R:3 energy=        0.6040811853 pbc="T T T"
       O     0.0025692400     0.0156333400     0.0000000000      4.841407124     -9.049282252     -0.000000000
       H     1.0101270700    -0.1207557900     0.0000000000     -2.876842829      1.383968612     -0.000000000
       H    -0.3295924300     0.8015913500     0.0000000000     -1.964564346      7.665313640     -0.000000000
       3
Lattice="15.0 0.0 0.0 0.0 15.0 0.0 0.0 0.0 15.0" Properties=species:S:1:pos:R:3:forces:R:3 energy=        0.1372395151 pbc="T T T"
       O    -0.0017117400    -0.0070555200     0.0000000000     -2.088347338      1.668038827     -0.000000000
       H     0.9134583900     0.0785607100     0.0000000000      2.810837027     -0.678828736     -0.000000000
       H    -0.1649760000     0.9623623600     0.0000000000     -0.722489637     -0.989210143     -0.000000000
       3
Lattice="15.0 0.0 0.0 0.0 15.0 0.0 0.0 0.0 15.0" Properties=species:S:1:pos:R:3:forces:R:3 energy=        0.3414399816 pbc="T T T"
       O    -0.0047651300    -0.0024290000     0.0000000000      0.132036854     -4.138188532     -0.000000000
       H     0.9235327400     0.0937896000     0.0000000000      2.037540928     -1.143351038     -0.000000000
       H    -0.1265905500     0.8737071200     0.0000000000     -2.169577782      5.281539570     -0.000000000
       3
Lattice="15.0 0.0 0.0 0.0 15.0 0.0 0.0 0.0 15.0" Properties=species:S:1:pos:R:3:forces:R:3 energy=        0.4269277508 pbc="T T T"
       O    -0.0082030600     0.0031214000     0.0000000000      5.136880188     -3.219510725     -0.000000000
       H     1.0848274200    -0.0065797100     0.0000000000     -4.579690759      0.210360869     -0.000000000
       H    -0.2333254800     0.8859887000     0.0000000000     -0.557189428      3.009149855     -0.000000000
       3
Lattice="15.0 0.0 0.0 0.0 15.0 0.0 0.0 0.0 15.0" Properties=species:S:1:pos:R:3:forces:R:3 energy=        0.5531262051 pbc="T T T"
       O    -0.0087326800     0.0037872300     0.0000000000      5.299875144     -2.689808767     -0.000000000
       H     1.1142369900    -0.0249879100     0.0000000000     -5.129389018      0.479676185     -0.000000000
       H    -0.2543300900     0.8938299500     0.0000000000     -0.170486126      2.210132634     -0.000000000
       3
Lattice="15.0 0.0 0.0 0.0 15.0 0.0 0.0 0.0 15.0" Properties=species:S:1:pos:R:3:forces:R:3 energy=        0.4170994553 pbc="T T T"
       O    -0.0084781600     0.0004157500     0.0000000000      4.612422101     -0.539534220     -0.000000000
       H     1.0978413400    -0.0047695400     0.0000000000     -4.783300474      0.230729672     -0.000000000
       H    -0.2419732900     0.9271192800     0.0000000000      0.170878374      0.308804548     -0.000000000
       3
Lattice="15.0 0.0 0.0 0.0 15.0 0.0 0.0 0.0 15.0" Properties=species:S:1:pos:R:3:forces:R:3 energy=        0.6441459457 pbc="T T T"
       O     0.0052895900    -0.0089040200     0.0000000000     -9.075764987      3.608831668     -0.000000000
       H     0.8535905500     0.0445897500     0.0000000000      8.734853568      0.019207949     -0.000000000
       H    -0.2162251900     1.0256704700     0.0000000000      0.340911419     -3.628039618     -0.000000000
       3
Lattice="15.0 0.0 0.0 0.0 15.0 0.0 0.0 0.0 15.0" Properties=species:S:1:pos:R:3:forces:R:3 energy=        0.6034548173 pbc="T T T"
       O     0.0006178800     0.0128215300     0.0000000000      3.982224981     -3.424456745     -0.000000000
       H     1.0831555100    -0.1445555300     0.0000000000     -4.746957245      1.840387307     -0.000000000
       H    -0.3716519300     0.8700171800     0.0000000000      0.764732213      1.584069438     -0.000000000
       3
Lattice="15.0 0.0 0.0 0.0 15.0 0.0 0.0 0.0 15.0" Properties=species:S:1:pos:R:3:forces:R:3 energy=        0.3428380699 pbc="T T T"
       O     0.0028481100     0.0076893400     0.0000000000      1.839029147     -0.290520910     -0.000000000
       H     1.0382171100    -0.1209737900     0.0000000000     -3.499206977      1.488180975     -0.000000000
       H    -0.3621082800     0.9278866800     0.0000000000      1.660177830     -1.197660064     -0.000000000
       3
Lattice="15.0 0.0 0.0 0.0 15.0 0.0 0.0 0.0 15.0" Properties=species:S:1:pos:R:3:forces:R:3 energy=        0.4234891758 pbc="T T T"
       O     0.0031189700    -0.0043273100     0.0000000000     -7.492803130      0.588604159     -0.000000000
       H     0.8560937400     0.0549754200     0.0000000000      8.235823138     -0.312886587     -0.000000000
       H    -0.1842790000     0.9426488800     0.0000000000     -0.743019957     -0.275717623     -0.000000000
       3
Lattice="15.0 0.0 0.0 0.0 15.0 0.0 0.0 0.0 15.0" Properties=species:S:1:pos:R:3:forces:R:3 energy=        0.7920843600 pbc="T T T"
       O     0.0017347200    -0.0139142800     0.0000000000     -1.284109644      5.292094879     -0.000000000
       H     0.9664290300     0.0165654600     0.0000000000     -0.145962624      0.148478449     -0.000000000
       H    -0.2726459200     1.1332118200     0.0000000000      1.430072267     -5.440573380     -0.000000000
       3
Lattice="15.0 0.0 0.0 0.0 15.0 0.0 0.0 0.0 15.0" Properties=species:S:1:pos:R:3:forces:R:3 energy=        0.1903392341 pbc="T T T"
       O    -0.0081403400    -0.0024085300     0.0000000000      3.871588611     -0.715037754     -0.000000000
       H     1.0368959800     0.0472919000     0.0000000000     -3.246851077     -0.498743392     -0.000000000
       H    -0.1863880400     0.9198807400     0.0000000000     -0.624737534      1.213781094     -0.000000000
       3
Lattice="15.0 0.0 0.0 0.0 15.0 0.0 0.0 0.0 15.0" Properties=species:S:1:pos:R:3:forces:R:3 energy=        0.5639888190 pbc="T T T"
       O     0.0136953500     0.0044900600     0.0000000000     -7.575749579      3.039707791     -0.000000000
       H     0.8875819800    -0.1276025400     0.0000000000      5.028419589      0.492806815     -0.000000000
       H    -0.3836268500     0.9852898600     0.0000000000      2.547329990     -3.532514554     -0.000000000
       3
Lattice="15.0 0.0 0.0 0.0 15.0 0.0 0.0 0.0 15.0" Properties=species:S:1:pos:R:3:forces:R:3 energy=        1.3515500208 pbc="T T T"
       O     0.0172856000     0.0051088300     0.0000000000    -18.480925984      3.783517796     -0.000000000
       H     0.7980588500    -0.1042816000     0.0000000000     16.589862621     -1.233607343     -0.000000000
       H    -0.3510829000     0.9521481100     0.0000000000      1.891063363     -2.549910453     -0.000000000
       3
Lattice="15.0 0.0 0.0 0.0 15.0 0.0 0.0 0.0 15.0" Properties=species:S:1:pos:R:3:forces:R:3 energy=        0.4467835018 pbc="T T T"
       O     0.0023888600     0.0084458900     0.0000000000      2.237014198     -0.419947631     -0.000000000
       H     1.0563945100    -0.1318129700     0.0000000000     -4.015416550      1.646783970     -0.000000000
       H    -0.3729972700     0.9267190800     0.0000000000      1.778402351     -1.226836340     -0.000000000
       3
Lattice="15.0 0.0 0.0 0.0 15.0 0.0 0.0 0.0 15.0" Properties=species:S:1:pos:R:3:forces:R:3 energy=        0.5334630726 pbc="T T T"
       O     0.0040069000     0.0141097000     0.0000000000      2.979352864     -9.415698359     -0.000000000
       H     0.9608178100    -0.0953827300     0.0000000000     -0.600957081      0.860270647     -0.000000000
       H    -0.3030991900     0.8003992900     0.0000000000     -2.378395783      8.555427712     -0.000000000
       3
Lattice="15.0 0.0 0.0 0.0 15.0 0.0 0.0 0.0 15.0" Properties=species:S:1:pos:R:3:forces:R:3 energy=        0.5148440817 pbc="T T T"
       O     0.0043069900    -0.0010295300     0.0000000000     -0.154145935      3.119972990     -0.000000000
       H     1.0077699800    -0.0878370300     0.0000000000     -2.181886892      1.089676766     -0.000000000
       H    -0.3548135600     1.0331245600     0.0000000000      2.336032827     -4.209649756     -0.000000000
       3
Lattice="15.0 0.0 0.0 0.0 15.0 0.0 0.0 0.0 15.0" Properties=species:S:1:pos:R:3:forces:R:3 energy=        0.4722888754 pbc="T T T"
       O     0.0007762700    -0.0089599500     0.0000000000     -6.615433868      1.828090846     -0.000000000
       H     0.8577729500     0.0971403300     0.0000000000      7.611824539     -0.442301943     -0.000000000
       H    -0.1487766200     0.9740071600     0.0000000000     -0.996390671     -1.385788903     -0.000000000
       3
Lattice="15.0 0.0 0.0 0.0 15.0 0.0 0.0 0.0 15.0" Properties=species:S:1:pos:R:3:forces:R:3 energy=        0.6130181990 pbc="T T T"
       O     0.0001881600     0.0122117800     0.0000000000      3.945170482     -3.067042230     -0.000000000
       H     1.0885689100    -0.1415419700     0.0000000000     -4.833804883      1.814862720     -0.000000000
       H    -0.3702452500     0.8766807800     0.0000000000      0.888634401      1.252179510     -0.000000000
       3
Lattice="15.0 0.0 0.0 0.0 15.0 0.0 0.0 0.0 15.0" Properties=species:S:1:pos:R:3:forces:R:3 energy=        0.6997790910 pbc="T T T"
       O    -0.0090928800     0.0000893100     0.0000000000      3.771600419     -8.712796629     -0.000000000
       H     0.9788507900     0.0962338800     0.0000000000     -1.014569922     -1.356988728     -0.000000000
       H    -0.1132240100     0.8312956200     0.0000000000     -2.757030497     10.069785358     -0.000000000
       3
Lattice="15.0 0.0 0.0 0.0 15.0 0.0 0.0 0.0 15.0" Properties=species:S:1:pos:R:3:forces:R:3 energy=        0.4934083233 pbc="T T T"
       O    -0.0038236000    -0.0109178100     0.0000000000      1.657035272      4.639820406     -0.000000000
       H     1.0207282300     0.0334597100     0.0000000000     -2.618351812     -0.133554885     -0.000000000
       H    -0.2387301900     1.0687614300     0.0000000000      0.961316540     -4.506265469     -0.000000000
       3
Lattice="15.0 0.0 0.0 0.0 15.0 0.0 0.0 0.0 15.0" Properties=species:S:1:pos:R:3:forces:R:3 energy=        0.1488562027 pbc="T T T"
       O    -0.0083588800    -0.0053283200     0.0000000000      3.113321234      0.056468754     -0.000000000
       H     1.0054371400     0.0836139300     0.0000000000     -2.136469928     -0.960915087     -0.000000000
       H    -0.1514597900     0.9298975000     0.0000000000     -0.976851255      0.904446333     -0.000000000
       3
Lattice="15.0 0.0 0.0 0.0 15.0 0.0 0.0 0.0 15.0" Properties=species:S:1:pos:R:3:forces:R:3 energy=        0.6206892221 pbc="T T T"
       O     0.0128483400     0.0041838600     0.0000000000    -11.024178530      2.238510170     -0.000000000
       H     0.8474192700    -0.0850118100     0.0000000000      9.519273036     -0.167230182     -0.000000000
       H    -0.3300202900     0.9475583200     0.0000000000      1.504905494     -2.071279936     -0.000000000
       3
Lattice="15.0 0.0 0.0 0.0 15.0 0.0 0.0 0.0 15.0" Properties=species:S:1:pos:R:3:forces:R:3 energy=        0.6428483463 pbc="T T T"
       O    -0.0092974700    -0.0166799100     0.0000000000      2.990216345      5.503503731     -0.000000000
       H     1.0326886900     0.1097883900     0.0000000000     -3.033692075     -0.991390850     -0.000000000
       H    -0.1638143000     1.0838812500     0.0000000000      0.043475729     -4.512112880     -0.000000000
       3
Lattice="15.0 0.0 0.0 0.0 15.0 0.0 0.0 0.0 15.0" Properties=species:S:1:pos:R:3:forces:R:3 energy=        0.6908282049 pbc="T T T"
       O    -0.0171218600    -0.0102147300     0.0000000000      5.471366417      2.372800185     -0.000000000
       H     1.1220106700     0.1164837500     0.0000000000     -4.841162201     -1.198553934     -0.000000000
       H    -0.1289576000     0.9745790000     0.0000000000     -0.630204216     -1.174246251     -0.000000000
       3
Lattice="15.0 0.0 0.0 0.0 15.0 0.0 0.0 0.0 15.0" Properties=species:S:1:pos:R:3:forces:R:3 energy=        0.9433829234 pbc="T T T"
       O    -0.0131202700    -0.0013817100     0.0000000000      4.998283366     -9.390018580     -0.000000000
       H     1.0120633900     0.1247121400     0.0000000000     -2.232749867     -1.752715939     -0.000000000
       H    -0.0825183200     0.8261634100     0.0000000000     -2.765533499     11.142734467     -0.000000000
       3
Lattice="15.0 0.0 0.0 0.0 15.0 0.0 0.0 0.0 15.0" Properties=species:S:1:pos:R:3:forces:R:3 energy=        1.2440668938 pbc="T T T"
       O     0.0080266800    -0.0064823900     0.0000000000    -16.469994341      2.068773829     -0.000000000
       H     0.7974966900     0.0467855000     0.0000000000     16.639438347      0.280293160     -0.000000000
       H    -0.2035709500     0.9850413400     0.0000000000     -0.169444006     -2.349066989     -0.000000000
       3
Lattice="15.0 0.0 0.0 0.0 15.0 0.0 0.0 0.0 15.0" Properties=species:S:1:pos:R:3:forces:R:3 energy=        0.6124813728 pbc="T T T"
       O    -0.0057594000    -0.0182960300     0.0000000000      0.880180970      5.715006427     -0.000000000
       H     0.9723461900     0.1181348400     0.0000000000     -0.813337347     -0.940951336     -0.000000000
       H    -0.1596234300     1.1011834500     0.0000000000     -0.066843623     -4.774055091     -0.000000000
       3
Lattice="15.0 0.0 0.0 0.0 15.0 0.0 0.0 0.0 15.0" Properties=species:S:1:pos:R:3:forces:R:3 energy=        0.8311182851 pbc="T T T"
       O    -0.0009596600     0.0134603100     0.0000000000      6.108215961    -12.246337826     -0.000000000
       H     1.0119157100    -0.0718074500     0.0000000000     -2.834997540      0.831133606     -0.000000000
       H    -0.2753736700     0.7871303700     0.0000000000     -3.273218421     11.415204219     -0.000000000
       3
Lattice="15.0 0.0 0.0 0.0 15.0 0.0 0.0 0.0 15.0" Properties=species:S:1:pos:R:3:forces:R:3 energy=        0.7330663768 pbc="T T T"
       O    -0.0001941200    -0.0177172400     0.0000000000     -4.587903895      5.075423594     -0.000000000
       H     0.8845248300     0.1159200600     0.0000000000      4.810674765     -0.398742653     -0.000000000
       H    -0.1601270500     1.0942121700     0.0000000000     -0.222770870     -4.676680941     -0.000000000
       3
Lattice="15.0 0.0 0.0 0.0 15.0 0.0 0.0 0.0 15.0" Properties=species:S:1:pos:R:3:forces:R:3 energy=        0.3263584328 pbc="T T T"
       O    -0.0019732700    -0.0034898400     0.0000000000      1.847650214      2.859350732     -0.000000000
       H     1.0354330200    -0.0241677500     0.0000000000     -3.174261859      0.459073823     -0.000000000
       H    -0.2828026800     1.0085020500     0.0000000000      1.326611593     -3.318424555     -0.000000000
       3
Lattice="15.0 0.0 0.0 0.0 15.0 0.0 0.0 0.0 15.0" Properties=species:S:1:pos:R:3:forces:R:3 energy=        0.6742710398 pbc="T T T"
       O    -0.0095336100     0.0046397700     0.0000000000      6.165158158     -7.824192824     -0.000000000
       H     1.0687692100     0.0175031900     0.0000000000     -4.221867644     -0.168606546     -0.000000000
       H    -0.1961499100     0.8378079800     0.0000000000     -1.943290515      7.992799370     -0.000000000
       3
Lattice="15.0 0.0 0.0 0.0 15.0 0.0 0.0 0.0 15.0" Properties=species:S:1:pos:R:3:forces:R:3 energy=        0.2000983392 pbc="T T T"
       O    -0.0033191800    -0.0108504400     0.0000000000     -0.884433268      3.458457544     -0.000000000
       H     0.9342401100     0.0941910000     0.0000000000      1.335795989     -0.787413108     -0.000000000
       H    -0.1602460400     1.0069602300     0.0000000000     -0.451362721     -2.671044436     -0.000000000
       3
Lattice="15.0 0.0 0.0 0.0 15.0 0.0 0.0 0.0 15.0" Properties=species:S:1:pos:R:3:forces:R:3 energy=        0.7533241081 pbc="T T T"
       O     0.0080216500    -0.0056176200     0.0000000000     -3.368876102      4.350177116     -0.000000000
       H     0.9484230700    -0.0730753100     0.0000000000      0.935075540      0.790284877     -0.000000000
       H    -0.3544206500     1.0911788700     0.0000000000      2.433800562     -5.140461993     -0.000000000
       3
Lattice="15.0 0.0 0.0 0.0 15.0 0.0 0.0 0.0 15.0" Properties=species:S:1:pos:R:3:forces:R:3 energy=        0.7276193539 pbc="T T T"
       O    -0.0008581100     0.0134619100     0.0000000000      5.906869744    -10.699997647     -0.000000000
       H     1.0235798100    -0.0821213800     0.0000000000     -3.247853294      0.994684487     -0.000000000
       H    -0.2886496300     0.7974190200     0.0000000000     -2.659016450      9.705313161     -0.000000000
       3
Lattice="15.0 0.0 0.0 0.0 15.0 0.0 0.0 0.0 15.0" Properties=species:S:1:pos:R:3:forces:R:3 energy=        0.1575402594 pbc="T T T"
       O     0.0079801400     0.0079657500     0.0000000000     -1.706537516     -0.012646337     -0.000000000
       H     0.9511776300    -0.1175035800     0.0000000000      0.191215038      1.042053537     -0.000000000
       H    -0.3565176600     0.9200293700     0.0000000000      1.515322530     -1.029407200     -0.000000000
       3
Lattice="15.0 0.0 0.0 0.0 15.0 0.0 0.0 0.0 15.0" Properties=species:S:1:pos:R:3:forces:R:3 energy=        0.5784189299 pbc="T T T"
       O    -0.0027333900     0.0069081700     0.0000000000      3.752410416     -0.918580003     -0.000000000
       H     1.1045815200    -0.1012594700     0.0000000000     -5.009778671      1.384874104     -0.000000000
       H    -0.3398897300     0.9205703300     0.0000000000      1.257368256     -0.466294101     -0.000000000
       3
Lattice="15.0 0.0 0.0 0.0 15.0 0.0 0.0 0.0 15.0" Properties=species:S:1:pos:R:3:forces:R:3 energy=        0.4637582937 pbc="T T T"
       O    -0.0002943900    -0.0065460500     0.0000000000      0.868371785      3.950285848     -0.000000000
       H     1.0163149600    -0.0203825300     0.0000000000     -2.452980949      0.434346021     -0.000000000
       H    -0.2903294500     1.0532209700     0.0000000000      1.584609164     -4.384631817     -0.000000000
       3
Lattice="15.0 0.0 0.0 0.0 15.0 0.0 0.0 0.0 15.0" Properties=species:S:1:pos:R:3:forces:R:3 energy=        0.4392440458 pbc="T T T"
       O    -0.0032551100     0.0081934500     0.0000000000      4.736343161     -7.549233471     -0.000000000
       H     1.0211588500    -0.0341000700     0.0000000000     -2.984230660      0.417597024     -0.000000000
       H    -0.2481853100     0.8330117700     0.0000000000     -1.752112501      7.131636396     -0.000000000
       3
Lattice="15.0 0.0 0.0 0.0 15.0 0.0 0.0 0.0 15.0" Properties=species:S:1:pos:R:3:forces:R:3 energy=        0.6466862619 pbc="T T T"
       O    -0.0084893200    -0.0178231600     0.0000000000      2.481247979      5.699734787     -0.000000000
       H     1.0134071200     0.1184036300     0.0000000000     -2.433246078     -1.053438387     -0.000000000
       H    -0.1573585000     1.0934100500     0.0000000000     -0.048001902     -4.646296401     -0.000000000
       3
Lattice="15.0 0.0 0.0 0.0 15.0 0.0 0.0 0.0 15.0" Properties=species:S:1:pos:R:3:forces:R:3 energy=        0.5899986998 pbc="T T T"
       O    -0.0130415100    -0.0034952100     0.0000000000      5.232123098      0.457348818     -0.000000000
       H     1.1284440600     0.0400287700     0.0000000000     -5.161654784     -0.283777983     -0.000000000
       H    -0.2001511600     0.9443906900     0.0000000000     -0.070468314     -0.173570885     -0.000000000
       3
Lattice="15.0 0.0 0.0 0.0 15.0 0.0 0.0 0.0 15.0" Properties=species:S:1:pos:R:3:forces:R:3 energy=        0.7499593930 pbc="T T T"
       O    -0.0135541100    -0.0023878400     0.0000000000      5.325942800      0.435297278     -0.000000000
       H     1.1579633800     0.0199343400     0.0000000000     -5.543768768     -0.005437474     -0.000000000
       H    -0.2215356200     0.9469104900     0.0000000000      0.217825968     -0.429859804     -0.000000000
       3
Lattice="15.0 0.0 0.0 0.0 15.0 0.0 0.0 0.0 15.0" Properties=species:S:1:pos:R:3:forces:R:3 energy=        0.5052596928 pbc="T T T"
       O    -0.0025666400     0.0005404600     0.0000000000      2.780103073      1.812009617     -0.000000000
       H     1.0809672500    -0.0649129300     0.0000000000     -4.431843567      0.959635706     -0.000000000
       H    -0.3189208800     0.9852837600     0.0000000000      1.651740494     -2.771645323     -0.000000000
       3
Lattice="15.0 0.0 0.0 0.0 15.0 0.0 0.0 0.0 15.0" Properties=species:S:1:pos:R:3:forces:R:3 energy=        0.5171483990 pbc="T T T"
       O    -0.0107565500    -0.0036830600     0.0000000000      4.648734373      1.341774218     -0.000000000
       H     1.1135829000     0.0240009000     0.0000000000     -4.968073970     -0.083550299     -0.000000000
       H    -0.2215543700     0.9633998900     0.0000000000      0.319339597     -1.258223919     -0.000000000
       3
Lattice="15.0 0.0 0.0 0.0 15.0 0.0 0.0 0.0 15.0" Properties=species:S:1:pos:R:3:forces:R:3 energy=        0.7196638766 pbc="T T T"
       O    -0.0012666200    -0.0184012800     0.0000000000     -4.001401820      5.107441197     -0.000000000
       H     0.8870134800     0.1293604100     0.0000000000      4.435304325     -0.545628612     -0.000000000
       H    -0.1455940400     1.0916279800     0.0000000000     -0.433902505     -4.561812585     -0.000000000
       3
Lattice="15.0 0.0 0.0 0.0 15.0 0.0 0.0 0.0 15.0" Properties=species:S:1:pos:R:3:forces:R:3 energy=        0.2889672428 pbc="T T T"
       O    -0.0115348200    -0.0104040300     0.0000000000      3.685445334      2.240421426     -0.000000000
       H     1.0210464800     0.1266266600     0.0000000000     -2.633640061     -1.428240510     -0.000000000
       H    -0.1166634800     0.9674399200     0.0000000000     -1.051805273     -0.812180916     -0.000000000
       3
Lattice="15.0 0.0 0.0 0.0 15.0 0.0 0.0 0.0 15.0" Properties=species:S:1:pos:R:3:forces:R:3 energy=        0.2720872228 pbc="T T T"
       O     0.0082629200     0.0009013500     0.0000000000     -4.838080064      2.580780829     -0.000000000
       H     0.9131969600    -0.0692359600     0.0000000000      3.136270809      0.483645148     -0.000000000
       H    -0.3230236800     0.9838786100     0.0000000000      1.701809255     -3.064425977     -0.000000000
       3
Lattice="15.0 0.0 0.0 0.0 15.0 0.0 0.0 0.0 15.0" Properties=species:S:1:pos:R:3:forces:R:3 energy=        0.5072589133 pbc="T T T"
       O    -0.0127517600    -0.0145450600     0.0000000000      4.013168942      4.408530181     -0.000000000
       H     1.0469876000     0.1345286100     0.0000000000     -3.389888761     -1.402014063     -0.000000000
       H    -0.1232906500     1.0252591900     0.0000000000     -0.623280181     -3.006516119     -0.000000000
       3
Lattice="15.0 0.0 0.0 0.0 15.0 0.0 0.0 0.0 15.0" Properties=species:S:1:pos:R:3:forces:R:3 energy=        0.7443956958 pbc="T T T"
       O    -0.0050119500     0.0089200900     0.0000000000      5.995919686    -10.864364493     -0.000000000
       H     1.0280990100    -0.0201275300     0.0000000000     -3.225533485      0.235550287     -0.000000000
       H    -0.2272426800     0.8075068100     0.0000000000     -2.770386201     10.628814257     -0.000000000
       3
Lattice="15.0 0.0 0.0 0.0 15.0 0.0 0.0 0.0 15.0" Properties=species:S:1:pos:R:3:forces:R:3 energy=        0.6723625910 pbc="T T T"
       O    -0.0002632700     0.0146492500     0.0000000000      5.494244361     -7.319050518     -0.000000000
       H     1.0649598700    -0.1253260800     0.0000000000     -4.441216888      1.605212864     -0.000000000
       H    -0.3394713900     0.8217801900     0.0000000000     -1.053027473      5.713837655     -0.000000000
       3
Lattice="15.0 0.0 0.0 0.0 15.0 0.0 0.0 0.0 15.0" Properties=species:S:1:pos:R:3:forces:R:3 energy=        0.6062543084 pbc="T T T"
       O    -0.0005258800    -0.0082902400     0.0000000000     -6.837679256      0.022351587     -0.000000000
       H     0.8454780400     0.1206250300     0.0000000000      8.637846006     -0.619910234     -0.000000000
       H    -0.1158151000     0.9398934700     0.0000000000     -1.800166750      0.597558647     -0.000000000
       3
Lattice="15.0 0.0 0.0 0.0 15.0 0.0 0.0 0.0 15.0" Properties=species:S:1:pos:R:3:forces:R:3 energy=        0.4673361202 pbc="T T T"
       O     0.0062569400     0.0142801000     0.0000000000      1.137704687     -8.187553276     -0.000000000
       H     0.9358372600    -0.1042512100     0.0000000000      0.837622971      0.765336371     -0.000000000
       H    -0.3138287200     0.8065633600     0.0000000000     -1.975327658      7.422216904     -0.000000000
       3
Lattice="15.0 0.0 0.0 0.0 15.0 0.0 0.0 0.0 15.0" Properties=species:S:1:pos:R:3:forces:R:3 energy=        0.4119472161 pbc="T T T"
       O    -0.0049948000     0.0042460600     0.0000000000      3.835283435     -7.424629629     -0.000000000
       H     0.9917549400     0.0226109200     0.0000000000     -1.717955482     -0.352185815     -0.000000000
       H    -0.1911696500     0.8389483900     0.0000000000     -2.117327953      7.776815495     -0.000000000
       3
Lattice="15.0 0.0 0.0 0.0 15.0 0.0 0.0 0.0 15.0" Properties=species:S:1:pos:R:3:forces:R:3 energy=        0.6415387602 pbc="T T T"
       O    -0.0023969900     0.0120104100     0.0000000000      5.198844677     -5.314844062     -0.000000000
       H     1.0910713700    -0.1109914000     0.0000000000     -4.908734938      1.483819662     -0.000000000
       H    -0.3317188200     0.8493258500     0.0000000000     -0.290109739      3.831024400     -0.000000000
       3
Lattice="15.0 0.0 0.0 0.0 15.0 0.0 0.0 0.0 15.0" Properties=species:S:1:pos:R:3:forces:R:3 energy=        0.2034691959 pbc="T T T"
       O    -0.0074880000    -0.0061347900     0.0000000000      3.179204241      2.111909505     -0.000000000
       H     1.0356468300     0.0519638500     0.0000000000     -3.171455807     -0.478338902     -0.000000000
       H    -0.1954918000     0.9743472500     0.0000000000     -0.007748434     -1.633570602     -0.000000000
       3
Lattice="15.0 0.0 0.0 0.0 15.0 0.0 0.0 0.0 15.0" Properties=species:S:1:pos:R:3:forces:R:3 energy=        0.0955979175 pbc="T T T"
       O     0.0045524100     0.0078862500     0.0000000000      0.273131863     -1.630356156     -0.000000000
       H     0.9721246600    -0.0912755900     0.0000000000     -0.918064085      0.924449783     -0.000000000
       H    -0.3230634300     0.8950630000     0.0000000000      0.644932222      0.705906425     -0.000000000
       3
Lattice="15.0 0.0 0.0 0.0 15.0 0.0 0.0 0.0 15.0" Properties=species:S:1:pos:R:3:forces:R:3 energy=        0.3750934510 pbc="T T T"
       O     0.0028310700     0.0081795000     0.0000000000     -0.218965327     -7.187679015     -0.000000000
       H     0.9212155200    -0.0314538100     0.0000000000      2.201568902      0.053491981     -0.000000000
       H    -0.2448339800     0.8305865200     0.0000000000     -1.982603626      7.134187034     -0.000000000
       3
Lattice="15.0 0.0 0.0 0.0 15.0 0.0 0.0 0.0 15.0" Properties=species:S:1:pos:R:3:forces:R:3 energy=        0.5875879234 pbc="T T T"
       O     0.0120013700     0.0009655900     0.0000000000     -9.111719825      3.384556959     -0.000000000
       H     0.8702257900    -0.0821428000     0.0000000000      7.097205657      0.185940674     -0.000000000
       H    -0.3393846100     0.9957657200     0.0000000000      2.014514168     -3.570497634     -0.000000000
       3
Lattice="15.0 0.0 0.0 0.0 15.0 0.0 0.0 0.0 15.0" Properties=species:S:1:pos:R:3:forces:R:3 energy=        0.4661800200 pbc="T T T"
       O     0.0096964600     0.0016487500     0.0000000000     -9.481115533      1.712762777     -0.000000000
       H     0.8566097000    -0.0453165800     0.0000000000      8.584081436     -0.057666837     -0.000000000
       H    -0.2891870800     0.9480970100     0.0000000000      0.897034097     -1.655095939     -0.000000000
       3
Lattice="15.0 0.0 0.0 0.0 15.0 0.0 0.0 0.0 15.0" Properties=species:S:1:pos:R:3:forces:R:3 energy=        0.3786398157 pbc="T T T"
       O    -0.0012897100    -0.0045688900     0.0000000000      1.486225341      3.319452380     -0.000000000
       H     1.0293350900    -0.0244566800     0.0000000000     -2.950986846      0.469185668     -0.000000000
       H    -0.2875533100     1.0259162300     0.0000000000      1.464761505     -3.788638048     -0.000000000
       3
Lattice="15.0 0.0 0.0 0.0 15.0 0.0 0.0 0.0 15.0" Properties=species:S:1:pos:R:3:forces:R:3 energy=        0.3330901324 pbc="T T T"
       O     0.0113144900     0.0069804500     0.0000000000     -4.013530233      1.652976115     -0.000000000
       H     0.9275677000    -0.1371577600     0.0000000000      1.685725043      0.995976107     -0.000000000
       H    -0.3858267500     0.9553209200     0.0000000000      2.327805190     -2.648952222     -0.000000000
       3
Lattice="15.0 0.0 0.0 0.0 15.0 0.0 0.0 0.0 15.0" Properties=species:S:1:pos:R:3:forces:R:3 energy=        0.1799062200 pbc="T T T"
       O    -0.0059319700    -0.0061923400     0.0000000000      2.574413592      2.490739006     -0.000000000
       H     1.0234824500     0.0424145800     0.0000000000     -2.781982139     -0.351503701     -0.000000000
       H    -0.2080230200     0.9848098500     0.0000000000      0.207568599     -2.139235356     -0.000000000
       3
Lattice="15.0 0.0 0.0 0.0 15.0 0.0 0.0 0.0 15.0" Properties=species:S:1:pos:R:3:forces:R:3 energy=        0.0146542892 pbc="T T T"
       O     0.0005357000    -0.0010557600     0.0000000000     -1.102989379      0.263689277     -0.000000000
       H     0.9384748500     0.0125322000     0.0000000000      1.233872270     -0.141868603     -0.000000000
       H    -0.2256628600     0.9331708100     0.0000000000     -0.130882891     -0.121820674     -0.000000000
       3
Lattice="15.0 0.0 0.0 0.0 15.0 0.0 0.0 0.0 15.0" Properties=species:S:1:pos:R:3:forces:R:3 energy=        0.6552974030 pbc="T T T"