       3
Lattice="15.0 0.0 0.0 0.0 15.0 0.0 0.0 0.0 15.0" Properties=species:S:1:pos:R:3:forces:R:3 energy=        0.8230985889 pbc="T T T"
       O    -0.0188204900    -0.0084324600     0.0000000000      5.870984891      1.285348093     -0.000000000
       H     1.1520521900     0.1084738100     0.0000000000     -5.215573979     -1.079554379     -0.000000000
       H    -0.1320408400     0.9543030900     0.0000000000     -0.655410912     -0.205793714     -0.000000000
       3
Lattice="15.0 0.0 0.0 0.0 15.0 0.0 0.0 0.0 15.0" Properties=species:S:1:pos:R:3:forces:R:3 energy=        0.6514684807 pbc="T T T"
       O    -0.0095271700     0.0045980500     0.0000000000      5.687176639     -3.524148181     -0.000000000
       H     1.1260760100    -0.0269447400     0.0000000000     -5.318389769      0.510171951     -0.000000000
       H    -0.2535599900     0.8829185300     0.0000000000     -0.368786870      3.013976229     -0.000000000
       3
Lattice="15.0 0.0 0.0 0.0 15.0 0.0 0.0 0.0 15.0" Properties=species:S:1:pos:R:3:forces:R:3 energy=        0.1220688871 pbc="T T T"
       O     0.0030250700    -0.0031821800     0.0000000000     -3.564885478      2.035436633     -0.000000000
       H     0.9124474100     0.0087644800     0.0000000000      3.162061454     -0.054572513     -0.000000000
       H    -0.2391435500     0.9706863200     0.0000000000      0.402823973     -1.980864120     -0.000000000
       3
Lattice="15.0 0.0 0.0 0.0 15.0 0.0 0.0 0.0 15.0" Properties=species:S:1:pos:R:3:forces:R:3 energy=        0.2474280144 pbc="T T T"
       O     0.0103203400     0.0060218400     0.0000000000     -5.016764465      1.229548546     -0.000000000
       H     0.9070310600    -0.1059381000     0.0000000000      3.339950561      0.595751880     -0.000000000
       H    -0.3495114100     0.9393149200     0.0000000000      1.676813904     -1.825300427     -0.000000000
       3
Lattice="15.0 0.0 0.0 0.0 15.0 0.0 0.0 0.0 15.0" Properties=species:S:1:pos:R:3:forces:R:3 energy=        0.6350840997 pbc="T T T"
       O     0.0038534900    -0.0082944400     0.0000000000     -1.487173873      4.546008263     -0.000000000
       H     0.9721275500    -0.0316793100     0.0000000000     -0.424478277      0.528049817     -0.000000000
       H    -0.3119721900     1.0922658400     0.0000000000      1.911652150     -5.074058029     -0.000000000
       3
Lattice="15.0 0.0 0.0 0.0 15.0 0.0 0.0 0.0 15.0" Properties=species:S:1:pos:R:3:forces:R:3 energy=        0.2234648162 pbc="T T T"
       O    -0.0002778700    -0.0031874700     0.0000000000     -3.355141160     -1.015454999     -0.000000000
       H     0.8914974900     0.0657546500     0.0000000000      4.612595856     -0.630861390     -0.000000000
       H    -0.1657721300     0.9137796800     0.0000000000     -1.257454748      1.646316389     -0.000000000
       3
Lattice="15.0 0.0 0.0 0.0 15.0 0.0 0.0 0.0 15.0" Properties=species:S:1:pos:R:3:forces:R:3 energy=        0.4561475765 pbc="T T T"
       O    -0.0013520300    -0.0082791400     0.0000000000      0.985839013      4.233224469     -0.000000000
       H     1.0130045600     0.0006832800     0.0000000000     -2.327846019      0.213589045     -0.000000000
       H    -0.2702330500     1.0596604100     0.0000000000      1.342007006     -4.446813463     -0.000000000
       3
Lattice="15.0 0.0 0.0 0.0 15.0 0.0 0.0 0.0 15.0" Properties=species:S:1:pos:R:3:forces:R:3 energy=        0.2779279291 pbc="T T T"
       O     0.0053155900     0.0054086100     0.0000000000     -4.250196432     -3.345368032     -0.000000000
       H     0.8870767700    -0.0268323600     0.0000000000      5.154185520     -0.081918008     -0.000000000
       H    -0.2501261100     0.8699410800     0.0000000000     -0.903989088      3.427286040     -0.000000000
       3
Lattice="15.0 0.0 0.0 0.0 15.0 0.0 0.0 0.0 15.0" Properties=species:S:1:pos:R:3:forces:R:3 energy=        0.3775160453 pbc="T T T"
       O    -0.0116869900    -0.0042041400     0.0000000000      4.449719633     -2.730421675     -0.000000000
       H     1.0250391100     0.1058659400     0.0000000000     -2.762131208     -1.331087372     -0.000000000
       H    -0.1182416100     0.8898038600     0.0000000000     -1.687588425      4.061509046     -0.000000000
       3
Lattice="15.0 0.0 0.0 0.0 15.0 0.0 0.0 0.0 15.0" Properties=species:S:1:pos:R:3:forces:R:3 energy=        0.4707721128 pbc="T T T"
       O    -0.0048618500     0.0051812900     0.0000000000      4.260632493     -1.448972713     -0.000000000
       H     1.0978916500    -0.0643921500     0.0000000000     -4.881123899      0.950770949     -0.000000000
       H    -0.2994186900     0.9111095500     0.0000000000      0.620491407      0.498201763     -0.000000000
       3
Lattice="15.0 0.0 0.0 0.0 15.0 0.0 0.0 0.0 15.0" Properties=species:S:1:pos:R:3:forces:R:3 energy=        0.3251396920 pbc="T T T"
       O    -0.0013342900    -0.0112315000     0.0000000000     -3.587097866      3.174472329     -0.000000000
       H     0.8923684800     0.1034442500     0.0000000000      4.293702654     -0.668126926     -0.000000000
       H    -0.1498758400     1.0037546100     0.0000000000     -0.706604737     -2.506345403     -0.000000000
       3
Lattice="15.0 0.0 0.0 0.0 15.0 0.0 0.0 0.0 15.0" Properties=species:S:1:pos:R:3:forces:R:3 energy=        0.2514211819 pbc="T T T"
       O    -0.0018448900     0.0068418400     0.0000000000      3.592331658     -2.989018005     -0.000000000
       H     1.0413105000    -0.0628689300     0.0000000000     -3.596180549      0.838956860     -0.000000000
       H    -0.2907188700     0.8832319300     0.0000000000      0.003848892      2.150061145     -0.000000000
       3
Lattice="15.0 0.0 0.0 0.0 15.0 0.0 0.0 0.0 15.0" Properties=species:S:1:pos:R:3:forces:R:3 energy=        0.3190285398 pbc="T T T"
       O     0.0068088700     0.0082855900     0.0000000000      0.038271403      0.397029012     -0.000000000
       H     0.9989630100    -0.1411831600     0.0000000000     -2.154703891      1.542045046     -0.000000000
       H    -0.3857147900     0.9386331800     0.0000000000      2.116432540     -1.939074058     -0.000000000
       3
Lattice="15.0 0.0 0.0 0.0 15.0 0.0 0.0 0.0 15.0" Properties=species:S:1:pos:R:3:forces:R:3 energy=        0.4282581045 pbc="T T T"
       O    -0.0139627800    -0.0088421600     0.0000000000      4.836682823      1.596702097     -0.000000000
       H     1.0713195300     0.1125892000     0.0000000000     -3.977301213     -1.246501894     -0.000000000
       H    -0.1284034100     0.9566895600     0.0000000000     -0.859381610     -0.350200202     -0.000000000
       3
Lattice="15.0 0.0 0.0 0.0 15.0 0.0 0.0 0.0 15.0" Properties=species:S:1:pos:R:3:forces:R:3 energy=        0.8600648405 pbc="T T T"
       O    -0.0066637600     0.0086086200     0.0000000000      5.145177913     -2.864809187     -0.000000000
       H     1.1537153400    -0.0963332000     0.0000000000     -5.703547067      1.355493168     -0.000000000
       H    -0.3266455200     0.8886567000     0.0000000000      0.558369154      1.509316018     -0.000000000
       3
Lattice="15.0 0.0 0.0 0.0 15.0 0.0 0.0 0.0 15.0" Properties=species:S:1:pos:R:3:forces:R:3 energy=        0.4911972349 pbc="T T T"
       O     0.0005242900    -0.0127988500     0.0000000000     -5.198745484      3.958423650     -0.000000000
       H     0.8790413600     0.0958265800     0.0000000000      5.533115757     -0.391439328     -0.000000000
       H    -0.1660459400     1.0362471500     0.0000000000     -0.334370273     -3.566984322     -0.000000000
       3
Lattice="15.0 0.0 0.0 0.0 15.0 0.0 0.0 0.0 15.0" Properties=species:S:1:pos:R:3:forces:R:3 energy=        0.2548619338 pbc="T T T"
       O    -0.0057399900     0.0021957200     0.0000000000      4.046881005     -1.549279465     -0.000000000
       H     1.0594044400    -0.0142762000     0.0000000000     -3.983820608      0.292595380     -0.000000000
       H    -0.2469933400     0.9083763400     0.0000000000     -0.063060397      1.256684085     -0.000000000
       3
Lattice="15.0 0.0 0.0 0.0 15.0 0.0 0.0 0.0 15.0" Properties=species:S:1:pos:R:3:forces:R:3 energy=        0.3032563552 pbc="T T T"
       O    -0.0010128100    -0.0008773900     0.0000000000     -2.284450046     -3.492830330     -0.000000000
       H     0.8976124700     0.0627846700     0.0000000000      4.082711659     -0.726196141     -0.000000000
       H    -0.1602230900     0.8800869700     0.0000000000     -1.798261665      4.219026419     -0.000000000
       3
Lattice="15.0 0.0 0.0 0.0 15.0 0.0 0.0 0.0 15.0" Properties=species:S:1:pos:R:3:forces:R:3 energy=        0.1816765764 pbc="T T T"
       O     0.0019008200     0.0046859500     0.0000000000      1.394242797      0.198749556     -0.000000000
       H     1.0157202500    -0.0823663300     0.0000000000     -2.678546302      1.018871585     -0.000000000
       H    -0.3245760800     0.9369449200     0.0000000000      1.284303505     -1.217621193     -0.000000000
       3
Lattice="15.0 0.0 0.0 0.0 15.0 0.0 0.0 0.0 15.0" Properties=species:S:1:pos:R:3:forces:R:3 energy=        0.3827282230 pbc="T T T"
       O    -0.0066910800    -0.0093781400     0.0000000000      2.774147779      3.909908145     -0.000000000
       H     1.0415824400     0.0477532400     0.0000000000     -3.316450564     -0.347746700     -0.000000000
       H    -0.2140751100     1.0300322100     0.0000000000      0.542302786     -3.562161393     -0.000000000
       3
Lattice="15.0 0.0 0.0 0.0 15.0 0.0 0.0 0.0 15.0" Properties=species:S:1:pos:R:3:forces:R:3 energy=        0.4854863704 pbc="T T T"
       O    -0.0127249900    -0.0133295200     0.0000000000      4.138773767      4.067114980     -0.000000000
       H     1.0550348800     0.1241197500     0.0000000000     -3.601915089     -1.290892474     -0.000000000
       H    -0.1317629600     1.0163766700     0.0000000000     -0.536858678     -2.776222505     -0.000000000
       3
Lattice="15.0 0.0 0.0 0.0 15.0 0.0 0.0 0.0 15.0" Properties=species:S:1:pos:R:3:forces:R:3 energy=        0.1677543933 pbc="T T T"
       O     0.0000687900     0.0073867400     0.0000000000      2.621629507     -4.148264587     -0.000000000
       H     0.9970770300    -0.0538216700     0.0000000000     -2.045582982      0.611988250     -0.000000000
       H    -0.2768565800     0.8655365600     0.0000000000     -0.576046474      3.536276337     -0.000000000
       3
Lattice="15.0 0.0 0.0 0.0 15.0 0.0 0.0 0.0 15.0" Properties=species:S:1:pos:R:3:forces:R:3 energy=        0.8399900758 pbc="T T T"
       O     0.0080557500    -0.0002467700     0.0000000000     -1.105095370      3.318008088     -0.000000000
       H     1.0011701300    -0.1313782900     0.0000000000     -1.903647273      1.471301829     -0.000000000
       H    -0.4077104300     1.0642430600     0.0000000000      3.008742592     -4.789309916     -0.000000000
       3
Lattice="15.0 0.0 0.0 0.0 15.0 0.0 0.0 0.0 15.0" Properties=species:S:1:pos:R:3:forces:R:3 energy=        0.1726670471 pbc="T T T"
       O     0.0059949900     0.0089257400     0.0000000000      0.158025063     -0.852445850     -0.000000000
       H     0.9827205800    -0.1205574200     0.0000000000     -1.481052794      1.261968835     -0.000000000
       H    -0.3565550000     0.9078474800     0.0000000000      1.323027731     -0.409522985     -0.000000000
       3
Lattice="15.0 0.0 0.0 0.0 15.0 0.0 0.0 0.0 15.0" Properties=species:S:1:pos:R:3:forces:R:3 energy=        0.3007136825 pbc="T T T"
       O    -0.0099843000    -0.0129504500     0.0000000000      2.783709767      3.633777243     -0.000000000
       H     0.9989104500     0.1327309100     0.0000000000     -1.895089815     -1.408163784     -0.000000000
       H    -0.1191351500     1.0017490700     0.0000000000     -0.888619952     -2.225613407     -0.000000000
       3
Lattice="15.0 0.0 0.0 0.0 15.0 0.0 0.0 0.0 15.0" Properties=species:S:1:pos:R:3:forces:R:3 energy=        0.2070688759 pbc="T T T"
       O    -0.0056682200    -0.0064783300     0.0000000000      0.088503532     -0.659357300     -0.000000000
       H     0.9289068700     0.1135055000     0.0000000000      1.614772435     -1.249365796     -0.000000000
       H    -0.1176314100     0.9182569800     0.0000000000     -1.703275967      1.908723096     -0.000000000
       3
Lattice="15.0 0.0 0.0 0.0 15.0 0.0 0.0 0.0 15.0" Properties=species:S:1:pos:R:3:forces:R:3 energy=        0.6852846469 pbc="T T T"
       O     0.0104542100    -0.0035876900     0.0000000000     -8.897456534      4.140893334     -0.000000000
       H     0.8731965000    -0.0510351900     0.0000000000      7.008278562      0.229989606     -0.000000000
       H    -0.3177999800     1.0369218500     0.0000000000      1.889177972     -4.370882940     -0.000000000
       3
Lattice="15.0 0.0 0.0 0.0 15.0 0.0 0.0 0.0 15.0" Properties=species:S:1:pos:R:3:forces:R:3 energy=        0.2147380812 pbc="T T T"
       O    -0.0064158700    -0.0063166500     0.0000000000      0.666282004     -0.946902311     -0.000000000
       H     0.9373258100     0.1156725700     0.0000000000      1.096670993     -1.317920797     -0.000000000
       H    -0.1141845800     0.9135240300     0.0000000000     -1.762952997      2.264823109     -0.000000000
       3
Lattice="15.0 0.0 0.0 0.0 15.0 0.0 0.0 0.0 15.0" Properties=species:S:1:pos:R:3:forces:R:3 energy=        0.5372478988 pbc="T T T"
       O     0.0039306100    -0.0078082500     0.0000000000     -1.948825228      4.442635572     -0.000000000
       H     0.9603381200    -0.0250069600     0.0000000000      0.186613275      0.438675606     -0.000000000
       H    -0.3014065900     1.0778772800     0.0000000000      1.762211953     -4.881311179     -0.000000000
       3
Lattice="15.0 0.0 0.0 0.0 15.0 0.0 0.0 0.0 15.0" Properties=species:S:1:pos:R:3:forces:R:3 energy=        0.2033385867 pbc="T T T"
       O     0.0097322600     0.0107408500     0.0000000000     -2.019089654     -0.748858626     -0.000000000
       H     0.9418980700    -0.1406351600     0.0000000000      0.557725966      1.140489193     -0.000000000
       H    -0.3750461200     0.8991181400     0.0000000000      1.461363688     -0.391630567     -0.000000000
       3
Lattice="15.0 0.0 0.0 0.0 15.0 0.0 0.0 0.0 15.0" Properties=species:S:1:pos:R:3:forces:R:3 energy=        0.7611091713 pbc="T T T"
       O    -0.0001883800     0.0156850400     0.0000000000      5.693261107     -7.329283462     -0.000000000
       H     1.0775343100    -0.1392771000     0.0000000000     -4.738468641      1.785460496     -0.000000000
       H    -0.3532347400     0.8192926300     0.0000000000     -0.954792414      5.543822967     -0.000000000
       3
Lattice="15.0 0.0 0.0 0.0 15.0 0.0 0.0 0.0 15.0" Properties=species:S:1:pos:R:3:forces:R:3 energy=        0.2587323099 pbc="T T T"
       O     0.0071534300     0.0007803100     0.0000000000     -6.640771793      1.314897847     -0.000000000
       H     0.8804549500    -0.0297562200     0.0000000000      6.001652067      0.046049611     -0.000000000
       H    -0.2726721400     0.9463193900     0.0000000000      0.639119778     -1.360947458     -0.000000000
       3
Lattice="15.0 0.0 0.0 0.0 15.0 0.0 0.0 0.0 15.0" Properties=species:S:1:pos:R:3:forces:R:3 energy=        0.3691146850 pbc="T T T"
       O    -0.0096797200    -0.0064778700     0.0000000000      4.032946339      2.337858466     -0.000000000
       H     1.0745504900     0.0498460700     0.0000000000     -4.181749159     -0.417914556     -0.000000000
       H    -0.1996112900     0.9819101600     0.0000000000      0.148802820     -1.919943910     -0.000000000
       3
Lattice="15.0 0.0 0.0 0.0 15.0 0.0 0.0 0.0 15.0" Properties=species:S:1:pos:R:3:forces:R:3 energy=        0.7839969701 pbc="T T T"
       O    -0.0138818400    -0.0030709300     0.0000000000      5.001339792     -6.972915901     -0.000000000
       H     1.0214077900     0.1321643100     0.0000000000     -2.529502981     -1.798232560     -0.000000000
       H    -0.0797758300     0.8455205000     0.0000000000     -2.471836812      8.771148460     -0.000000000
       3
Lattice="15.0 0.0 0.0 0.0 15.0 0.0 0.0 0.0 15.0" Properties=species:S:1:pos:R:3:forces:R:3 energy=        0.2549265799 pbc="T T T"
       O    -0.0008652400     0.0035912400     0.0000000000      0.469608460     -5.525948906     -0.000000000
       H     0.9355385200     0.0174348700     0.0000000000      1.308445455     -0.344838627     -0.000000000
       H    -0.2004925500     0.8545167100     0.0000000000     -1.778053915      5.870787585     -0.000000000
       3
Lattice="15.0 0.0 0.0 0.0 15.0 0.0 0.0 0.0 15.0" Properties=species:S:1:pos:R:3:forces:R:3 energy=        0.2529351908 pbc="T T T"
       O    -0.0012565200    -0.0103535900     0.0000000000     -1.142207308      4.093714083     -0.000000000
       H     0.9449562500     0.0588838800     0.0000000000      0.834899246     -0.391657718     -0.000000000
       H    -0.2036990200     1.0343822200     0.0000000000      0.307308062     -3.702056365     -0.000000000
       3
Lattice="15.0 0.0 0.0 0.0 15.0 0.0 0.0 0.0 15.0" Properties=species:S:1:pos:R:3:forces:R:3 energy=        0.7423225039 pbc="T T T"
       O    -0.0008405300     0.0072939300     0.0000000000      3.083295157      0.078513660     -0.000000000
       H     1.1115719100    -0.1312307300     0.0000000000     -5.088019949      1.715806604     -0.000000000
       H    -0.3769218600     0.9444194100     0.0000000000      2.004724791     -1.794320264     -0.000000000
       3
Lattice="15.0 0.0 0.0 0.0 15.0 0.0 0.0 0.0 15.0" Properties=species:S:1:pos:R:3:forces:R:3 energy=        0.1848570487 pbc="T T T"
       O     0.0094995200     0.0103611300     0.0000000000     -2.216432354     -0.852205092     -0.000000000
       H     0.9368151100    -0.1326234400     0.0000000000      0.911843298      1.033490371     -0.000000000
       H    -0.3662693000     0.8971327700     0.0000000000      1.304589056     -0.181285278     -0.000000000
       3
Lattice="15.0 0.0 0.0 0.0 15.0 0.0 0.0 0.0 15.0" Properties=species:S:1:pos:R:3:forces:R:3 energy=        1.0089678740 pbc="T T T"
       O    -0.0034410900     0.0123535300     0.0000000000      4.630863552     -2.892734774     -0.000000000
       H     1.1561608300    -0.1497484900     0.0000000000     -5.733402422      1.938879682     -0.000000000
       H    -0.3802385600     0.8826378800     0.0000000000      1.102538870      0.953855041     -0.000000000
       3
Lattice="15.0 0.0 0.0 0.0 15.0 0.0 0.0 0.0 15.0" Properties=species:S:1:pos:R:3:forces:R:3 energy=        0.4692185984 pbc="T T T"
       O    -0.0083321000    -0.0033481700     0.0000000000      2.133350098     -5.079332958     -0.000000000
       H     0.9518775300     0.1186347800     0.0000000000      0.312084814     -1.546872706     -0.000000000
       H    -0.0983243100     0.8634497800     0.0000000000     -2.445434912      6.626205664     -0.000000000
       3
Lattice="15.0 0.0 0.0 0.0 15.0 0.0 0.0 0.0 15.0" Properties=species:S:1:pos:R:3:forces:R:3 energy=        0.1195121325 pbc="T T T"
       O    -0.0065361800    -0.0083971800     0.0000000000      1.682578114      2.153230083     -0.000000000
       H     0.9777929000     0.0922873300     0.0000000000     -0.992472617     -0.964048698     -0.000000000
       H    -0.1527428200     0.9699290400     0.0000000000     -0.690105497     -1.189181436     -0.000000000
       3
Lattice="15.0 0.0 0.0 0.0 15.0 0.0 0.0 0.0 15.0" Properties=species:S:1:pos:R:3:forces:R:3 energy=        0.6239590456 pbc="T T T"
       O    -0.0137172000    -0.0034569600     0.0000000000      5.131882578     -5.113608556     -0.000000000
       H     1.0354913300     0.1204153900     0.0000000000     -3.013524126     -1.578158418     -0.000000000
       H    -0.0964727000     0.8633960700     0.0000000000     -2.118358503      6.691766974     -0.000000000
       3
Lattice="15.0 0.0 0.0 0.0 15.0 0.0 0.0 0.0 15.0" Properties=species:S:1:pos:R:3:forces:R:3 energy=        0.5169828368 pbc="T T T"
       O     0.0006039500    -0.0110088500     0.0000000000     -0.759410593      4.817769316     -0.000000000
       H     0.9715423000     0.0173754700     0.0000000000     -0.477237595      0.072113770     -0.000000000
       H    -0.2598131600     1.0862905000     0.0000000000      1.236648240     -4.889883086     -0.000000000
       3
Lattice="15.0 0.0 0.0 0.0 15.0 0.0 0.0 0.0 15.0" Properties=species:S:1:pos:R:3:forces:R:3 energy=        0.6181630803 pbc="T T T"
       O    -0.0038496500    -0.0183536200     0.0000000000     -0.561145535      5.620077706     -0.000000000
       H     0.9437989100     0.1169482200     0.0000000000      0.645764026     -0.807920339     -0.000000000
       H    -0.1613853000     1.1032840800     0.0000000000     -0.084618490     -4.812157367     -0.000000000
       3
Lattice="15.0 0.0 0.0 0.0 15.0 0.0 0.0 0.0 15.0" Properties=species:S:1:pos:R:3:forces:R:3 energy=        0.1634169283 pbc="T T T"
       O    -0.0022374300     0.0038259800     0.0000000000      2.966565887     -1.280208558     -0.000000000
       H     1.0332563000    -0.0422739700     0.0000000000     -3.271642283      0.594382099     -0.000000000
       H    -0.2764340600     0.9105007100     0.0000000000      0.305076395      0.685826460     -0.000000000
       3
Lattice="15.0 0.0 0.0 0.0 15.0 0.0 0.0 0.0 15.0" Properties=species:S:1:pos:R:3:forces:R:3 energy=        1.0889470246 pbc="T T T"
       O    -0.0117237400    -0.0011945500     0.0000000000      3.960761093    -11.040715771     -0.000000000
       H     0.9770168100     0.1341260500     0.0000000000     -0.826555909     -1.936418827     -0.000000000
       H    -0.0696354900     0.8137790100     0.0000000000     -3.134205184     12.977134598     -0.000000000
       3
Lattice="15.0 0.0 0.0 0.0 15.0 0.0 0.0 0.0 15.0" Properties=species:S:1:pos:R:3:forces:R:3 energy=        0.1670721195 pbc="T T T"
       O    -0.0057013900    -0.0100429900     0.0000000000      0.226758088      2.296961451     -0.000000000
       H     0.9411243000     0.1156593000     0.0000000000      0.842401574     -1.147881067     -0.000000000
       H    -0.1293223700     0.9726770400     0.0000000000     -1.069159713     -1.149080384     -0.000000000
       3
Lattice="15.0 0.0 0.0 0.0 15.0 0.0 0.0 0.0 15.0" Properties=species:S:1:pos:R:3:forces:R:3 energy=        0.2597878749 pbc="T T T"
       O    -0.0028742300     0.0013960400     0.0000000000      2.872806350      0.646028592     -0.000000000
       H     1.0540175100    -0.0428909300     0.0000000000     -3.819302427      0.658474537     -0.000000000
       H    -0.2870888300     0.9496828600     0.0000000000      0.946496077     -1.304503078     -0.000000000
       3
Lattice="15.0 0.0 0.0 0.0 15.0 0.0 0.0 0.0 15.0" Properties=species:S:1:pos:R:3:forces:R:3 energy=        0.8456555517 pbc="T T T"
       O     0.0155296800     0.0091047000     0.0000000000    -13.176685156      1.132505143     -0.000000000
       H     0.8243920000    -0.1156809100     0.0000000000     12.003896310     -0.738011651     -0.000000000
       H    -0.3495487200     0.9001301600     0.0000000000      1.172788898     -0.394493440     -0.000000000
       3
Lattice="15.0 0.0 0.0 0.0 15.0 0.0 0.0 0.0 15.0" Properties=species:S:1:pos:R:3:forces:R:3 energy=        1.1259159864 pbc="T T T"
       O     0.0065062800    -0.0065309600     0.0000000000    -15.011994738      1.354764415     -0.000000000
       H     0.8017577600     0.0623671300     0.0000000000     15.612663186      0.234698326     -0.000000000
       H    -0.1837017900     0.9702305500     0.0000000000     -0.600668500     -1.589462741     -0.000000000
       3
Lattice="15.0 0.0 0.0 0.0 15.0 0.0 0.0 0.0 15.0" Properties=species:S:1:pos:R:3:forces:R:3 energy=        0.4508599253 pbc="T T T"
       O     0.0007921100     0.0094213500     0.0000000000      2.490848020     -8.828739501     -0.000000000
       H     0.9568002600    -0.0378711100     0.0000000000     -0.141191785      0.253552440     -0.000000000
       H    -0.2480591300     0.8172948700     0.0000000000     -2.349656235      8.575187061     -0.000000000
       3
Lattice="15.0 0.0 0.0 0.0 15.0 0.0 0.0 0.0 15.0" Properties=species:S:1:pos:R:3:forces:R:3 energy=        0.4365749980 pbc="T T T"
       O    -0.0008925500    -0.0056612000     0.0000000000      1.246507911      3.687639771     -0.000000000
       H     1.0254793500    -0.0229153500     0.0000000000     -2.797153403      0.460849325     -0.000000000
       H    -0.2900007000     1.0417105600     0.0000000000      1.550645493     -4.148489096     -0.000000000
       3
Lattice="15.0 0.0 0.0 0.0 15.0 0.0 0.0 0.0 15.0" Properties=species:S:1:pos:R:3:forces:R:3 energy=        0.2021871042 pbc="T T T"
       O    -0.0082017100    -0.0066942800     0.0000000000      3.295436722      2.028168069     -0.000000000
       H     1.0331550900     0.0644574700     0.0000000000     -3.085053793     -0.639571469     -0.000000000
       H    -0.1816726100     0.9707331200     0.0000000000     -0.210382929     -1.388596600     -0.000000000
       3
Lattice="15.0 0.0 0.0 0.0 15.0 0.0 0.0 0.0 15.0" Properties=species:S:1:pos:R:3:forces:R:3 energy=        0.1485015676 pbc="T T T"
       O     0.0040977200     0.0062298800     0.0000000000      0.507046620     -0.107812320     -0.000000000
       H     0.9931584300    -0.0967860500     0.0000000000     -1.832425420      1.086972375     -0.000000000
       H    -0.3368810800     0.9268613300     0.0000000000      1.325378851     -0.979160004     -0.000000000
       3
Lattice="15.0 0.0 0.0 0.0 15.0 0.0 0.0 0.0 15.0" Properties=species:S:1:pos:R:3:forces:R:3 energy=        0.7653768690 pbc="T T T"
       O    -0.0014462300     0.0091331300     0.0000000000      3.561471566     -0.934821669     -0.000000000
       H     1.1202946800    -0.1363348000     0.0000000000     -5.260532259      1.780089562     -0.000000000
       H    -0.3760318900     0.9203341400     0.0000000000      1.699060693     -0.845267944     -0.000000000
       3
Lattice="15.0 0.0 0.0 0.0 15.0 0.0 0.0 0.0 15.0" Properties=species:S:1:pos:R:3:forces:R:3 energy=        0.5512699750 pbc="T T T"
       O     0.0050399100    -0.0062228700     0.0000000000     -2.112961703      4.241007510     -0.000000000
       H     0.9616042100    -0.0446566700     0.0000000000      0.116887496      0.599721203     -0.000000000
       H    -0.3202786600     1.0723659200     0.0000000000      1.996074208     -4.840728713     -0.000000000
       3
Lattice="15.0 0.0 0.0 0.0 15.0 0.0 0.0 0.0 15.0" Properties=species:S:1:pos:R:3:forces:R:3 energy=        0.1570006141 pbc="T T T"
       O    -0.0027639400    -0.0090196600     0.0000000000     -1.432630619      2.521425342     -0.000000000
       H     0.9227858500     0.0904739200     0.0000000000      2.096504013     -0.777024509     -0.000000000
       H    -0.1576040600     0.9816215600     0.0000000000     -0.663873342     -1.744400833     -0.000000000
       3
Lattice="15.0 0.0 0.0 0.0 15.0 0.0 0.0 0.0 15.0" Properties=species:S:1:pos:R:3:forces:R:3 energy=        0.5494692398 pbc="T T T"
       O    -0.0046376300    -0.0180972800     0.0000000000     -0.706855522      5.357010585     -0.000000000
       H     0.9326426200     0.1345147200     0.0000000000      1.188759878     -0.991709462     -0.000000000
       H    -0.1377226500     1.0816489800     0.0000000000     -0.481904356     -4.365301123     -0.000000000
       3
Lattice="15.0 0.0 0.0 0.0 15.0 0.0 0.0 0.0 15.0" Properties=species:S:1:pos:R:3:forces:R:3 energy=        0.1968521433 pbc="T T T"
       O    -0.0076950400    -0.0048521100     0.0000000000      2.231612977     -1.587614991     -0.000000000
       H     0.9696429100     0.1017272500     0.0000000000     -0.607381602     -1.234798536     -0.000000000
       H    -0.1262007900     0.9042261300     0.0000000000     -1.624231374      2.822413527     -0.000000000
       3
Lattice="15.0 0.0 0.0 0.0 15.0 0.0 0.0 0.0 15.0" Properties=species:S:1:pos:R:3:forces:R:3 energy=        0.7605362492 pbc="T T T"
       O    -0.0183445900    -0.0066416400     0.0000000000      6.019431459     -0.439790951     -0.000000000
       H     1.1343895000     0.1106815100     0.0000000000     -5.006316422     -1.181479487     -0.000000000
       H    -0.1219309400     0.9236736200     0.0000000000     -1.013115037      1.621270490     -0.000000000
       3
Lattice="15.0 0.0 0.0 0.0 15.0 0.0 0.0 0.0 15.0" Properties=species:S:1:pos:R:3:forces:R:3 energy=        0.3557991198 pbc="T T T"
       O     0.0101285600     0.0131911200     0.0000000000     -3.184004442     -4.325608671     -0.000000000
       H     0.8971639900    -0.1185029600     0.0000000000      3.690866199      0.482780896     -0.000000000
       H    -0.3366012000     0.8380980100     0.0000000000     -0.506861809      3.842827826     -0.000000000
       3
Lattice="15.0 0.0 0.0 0.0 15.0 0.0 0.0 0.0 15.0" Properties=species:S:1:pos:R:3:forces:R:3 energy=        0.4995652531 pbc="T T T"
       O     0.0019846800    -0.0051707500     0.0000000000      0.116296193      3.836601331     -0.000000000
       H     1.0054040000    -0.0443307900     0.0000000000     -2.023622048      0.668877380     -0.000000000
       H    -0.3155897300     1.0553423600     0.0000000000      1.907325855     -4.505478711     -0.000000000
       3
Lattice="15.0 0.0 0.0 0.0 15.0 0.0 0.0 0.0 15.0" Properties=species:S:1:pos:R:3:forces:R:3 energy=        0.2531867845 pbc="T T T"
       O    -0.0105152200    -0.0071003900     0.0000000000      3.962988132      1.343389129     -0.000000000
       H     1.0412068400     0.0879964800     0.0000000000     -3.292801340     -0.961663485     -0.000000000
       H    -0.1530065900     0.9536391900     0.0000000000     -0.670186792     -0.381725644     -0.000000000
       3
Lattice="15.0 0.0 0.0 0.0 15.0 0.0 0.0 0.0 15.0" Properties=species:S:1:pos:R:3:forces:R:3 energy=        0.0815335766 pbc="T T T"