3
Lattice="15.0 0.0 0.0 0.0 15.0 0.0 0.0 0.0 15.0" Properties=species:S:1:pos:R:3 energy=2.0964723631 pbc="T T T"
O        0.02776466       0.03576225       0.00000000
H        0.77310611      -0.31063754       0.00000000
H       -0.49244629       0.67201267       0.00000000
3
Lattice="15.0 0.0 0.0 0.0 15.0 0.0 0.0 0.0 15.0" Properties=species:S:1:pos:R:3 energy=1.4595286209 pbc="T T T"
O        0.02618446       0.03372630       0.00000000
H        0.80957859      -0.31306958       0.00000000
H       -0.50383978       0.70675687       0.00000000
3
Lattice="15.0 0.0 0.0 0.0 15.0 0.0 0.0 0.0 15.0" Properties=species:S:1:pos:R:3 energy=1.0700193831 pbc="T T T"
O        0.02460425       0.03169035       0.00000000
H        0.84605107      -0.31550162       0.00000000
H       -0.51523327       0.74150108       0.00000000
3
Lattice="15.0 0.0 0.0 0.0 15.0 0.0 0.0 0.0 15.0" Properties=species:S:1:pos:R:3 energy=0.8790547851 pbc="T T T"
O        0.02302404       0.02965441       0.00000000
H        0.88252355      -0.31793366       0.00000000
H       -0.52662675       0.77624529       0.00000000
3
Lattice="15.0 0.0 0.0 0.0 15.0 0.0 0.0 0.0 15.0" Properties=species:S:1:pos:R:3 energy=0.8460997204 pbc="T T T"
O        0.02144384       0.02761846       0.00000000
H        0.91899603      -0.32036571       0.00000000
H       -0.53802024       0.81098950       0.00000000
3
Lattice="15.0 0.0 0.0 0.0 15.0 0.0 0.0 0.0 15.0" Properties=species:S:1:pos:R:3 energy=0.9374659027 pbc="T T T"
O        0.01986363       0.02558251       0.00000000
H        0.95546850      -0.32279775       0.00000000
H       -0.54941373       0.84573370       0.00000000
3
Lattice="15.0 0.0 0.0 0.0 15.0 0.0 0.0 0.0 15.0" Properties=species:S:1:pos:R:3 energy=1.125154473 pbc="T T T"
O        0.01828343       0.02354656       0.00000000
H        0.99194098      -0.32522979       0.00000000
H       -0.56080721       0.88047791       0.00000000
3
Lattice="15.0 0.0 0.0 0.0 15.0 0.0 0.0 0.0 15.0" Properties=species:S:1:pos:R:3 energy=1.3859750418 pbc="T T T"
O        0.01670322       0.02151061       0.00000000
H        1.02841346      -0.32766183       0.00000000
H       -0.57220070       0.91522212       0.00000000
3
Lattice="15.0 0.0 0.0 0.0 15.0 0.0 0.0 0.0 15.0" Properties=species:S:1:pos:R:3 energy=1.7008463785 pbc="T T T"
O        0.01512301       0.01947466       0.00000000
H        1.06488594      -0.33009387       0.00000000
H       -0.58359419       0.94996633       0.00000000
3
Lattice="15.0 0.0 0.0 0.0 15.0 0.0 0.0 0.0 15.0" Properties=species:S:1:pos:R:3 energy=2.0542019893 pbc="T T T"
O        0.01354281       0.01743872       0.00000000
H        1.10135842      -0.33252591       0.00000000
H       -0.59498767       0.98471053       0.00000000
3
Lattice="15.0 0.0 0.0 0.0 15.0 0.0 0.0 0.0 15.0" Properties=species:S:1:pos:R:3 energy=2.4334550081 pbc="T T T"
O        0.01196260       0.01540277       0.00000000
H        1.13783090      -0.33495795       0.00000000
H       -0.60638116       1.01945474       0.00000000
3
Lattice="15.0 0.0 0.0 0.0 15.0 0.0 0.0 0.0 15.0" Properties=species:S:1:pos:R:3 energy=2.8285087318 pbc="T T T"
O        0.01038239       0.01336682       0.00000000
H        1.17430337      -0.33738999       0.00000000
H       -0.61777465       1.05419895       0.00000000
3
Lattice="15.0 0.0 0.0 0.0 15.0 0.0 0.0 0.0 15.0" Properties=species:S:1:pos:R:3 energy=3.2313224244 pbc="T T T"
O        0.00880219       0.01133087       0.00000000
H        1.21077585      -0.33982203       0.00000000
H       -0.62916813       1.08894316       0.00000000
3
Lattice="15.0 0.0 0.0 0.0 15.0 0.0 0.0 0.0 15.0" Properties=species:S:1:pos:R:3 energy=2.28425278 pbc="T T T"
O        0.02555759       0.03291975       0.00000000
H        0.77347979      -0.27477113       0.00000000
H       -0.45779121       0.68125863       0.00000000
3
Lattice="15.0 0.0 0.0 0.0 15.0 0.0 0.0 0.0 15.0" Properties=species:S:1:pos:R:3 energy=1.5212075566 pbc="T T T"
O        0.02397739       0.03088380       0.00000000
H        0.80995227      -0.27720317       0.00000000
H       -0.46918469       0.71600284       0.00000000
3
Lattice="15.0 0.0 0.0 0.0 15.0 0.0 0.0 0.0 15.0" Properties=species:S:1:pos:R:3 energy=1.038822476 pbc="T T T"
O        0.02239718       0.02884785       0.00000000
H        0.84642475      -0.27963521       0.00000000
H       -0.48057818       0.75074705       0.00000000
3
Lattice="15.0 0.0 0.0 0.0 15.0 0.0 0.0 0.0 15.0" Properties=species:S:1:pos:R:3 energy=0.7800358658 pbc="T T T"
O        0.02081697       0.02681190       0.00000000
H        0.88289723      -0.28206725       0.00000000
H       -0.49197167       0.78549126       0.00000000
3
Lattice="15.0 0.0 0.0 0.0 15.0 0.0 0.0 0.0 15.0" Properties=species:S:1:pos:R:3 energy=0.6982449185 pbc="T T T"
O        0.01923677       0.02477596       0.00000000
H        0.91936971      -0.28449929       0.00000000
H       -0.50336515       0.82023546       0.00000000
3
Lattice="15.0 0.0 0.0 0.0 15.0 0.0 0.0 0.0 15.0" Properties=species:S:1:pos:R:3 energy=0.7552709957 pbc="T T T"
O        0.01765656       0.02274001       0.00000000
H        0.95584219      -0.28693133       0.00000000
H       -0.51475864       0.85497967       0.00000000
3
Lattice="15.0 0.0 0.0 0.0 15.0 0.0 0.0 0.0 15.0" Properties=species:S:1:pos:R:3 energy=0.9197598484 pbc="T T T"
O        0.01607636       0.02070406       0.00000000
H        0.99231466      -0.28936337       0.00000000
H       -0.52615213       0.88972388       0.00000000
3
Lattice="15.0 0.0 0.0 0.0 15.0 0.0 0.0 0.0 15.0" Properties=species:S:1:pos:R:3 energy=1.1659781018 pbc="T T T"
O        0.01449615       0.01866811       0.00000000
H        1.02878714      -0.29179541       0.00000000
H       -0.53754561       0.92446809       0.00000000
3
Lattice="15.0 0.0 0.0 0.0 15.0 0.0 0.0 0.0 15.0" Properties=species:S:1:pos:R:3 energy=1.4728957 pbc="T T T"
O        0.01291594       0.01663216       0.00000000
H        1.06525962      -0.29422745       0.00000000
H       -0.54893910       0.95921230       0.00000000
3
Lattice="15.0 0.0 0.0 0.0 15.0 0.0 0.0 0.0 15.0" Properties=species:S:1:pos:R:3 energy=1.8234430359 pbc="T T T"
O        0.01133574       0.01459622       0.00000000
H        1.10173210      -0.29665949       0.00000000
H       -0.56033259       0.99395650       0.00000000
3
Lattice="15.0 0.0 0.0 0.0 15.0 0.0 0.0 0.0 15.0" Properties=species:S:1:pos:R:3 energy=2.203870128 pbc="T T T"
O        0.00975553       0.01256027       0.00000000
H        1.13820458      -0.29909154       0.00000000
H       -0.57172608       1.02870071       0.00000000
3
Lattice="15.0 0.0 0.0 0.0 15.0 0.0 0.0 0.0 15.0" Properties=species:S:1:pos:R:3 energy=2.6031775492 pbc="T T T"
O        0.00817532       0.01052432       0.00000000
H        1.17467705      -0.30152358       0.00000000
H       -0.58311956       1.06344492       0.00000000
3
Lattice="15.0 0.0 0.0 0.0 15.0 0.0 0.0 0.0 15.0" Properties=species:S:1:pos:R:3 energy=3.0126191055 pbc="T T T"
O        0.00659512       0.00848837       0.00000000
H        1.21114953      -0.30395562       0.00000000
H       -0.59451305       1.09818913       0.00000000
3
Lattice="15.0 0.0 0.0 0.0 15.0 0.0 0.0 0.0 15.0" Properties=species:S:1:pos:R:3 energy=2.4702502143 pbc="T T T"
O        0.02335052       0.03007725       0.00000000
H        0.77385347      -0.23890471       0.00000000
H       -0.42313612       0.69050460       0.00000000
3
Lattice="15.0 0.0 0.0 0.0 15.0 0.0 0.0 0.0 15.0" Properties=species:S:1:pos:R:3 energy=1.5860511765 pbc="T T T"
O        0.02177032       0.02804130       0.00000000
H        0.81032595      -0.24133675       0.00000000
H       -0.43452961       0.72524881       0.00000000
3
Lattice="15.0 0.0 0.0 0.0 15.0 0.0 0.0 0.0 15.0" Properties=species:S:1:pos:R:3 energy=1.0151880675 pbc="T T T"
O        0.02019011       0.02600535       0.00000000
H        0.84679843      -0.24376879       0.00000000
H       -0.44592310       0.75999302       0.00000000
3
Lattice="15.0 0.0 0.0 0.0 15.0 0.0 0.0 0.0 15.0" Properties=species:S:1:pos:R:3 energy=0.6923393375 pbc="T T T"
O        0.01860990       0.02396940       0.00000000
H        0.88327091      -0.24620083       0.00000000
H       -0.45731658       0.79473723       0.00000000
3
Lattice="15.0 0.0 0.0 0.0 15.0 0.0 0.0 0.0 15.0" Properties=species:S:1:pos:R:3 energy=0.5647910215 pbc="T T T"
O        0.01702970       0.02193346       0.00000000
H        0.91974339      -0.24863287       0.00000000
H       -0.46871007       0.82948143       0.00000000
3
Lattice="15.0 0.0 0.0 0.0 15.0 0.0 0.0 0.0 15.0" Properties=species:S:1:pos:R:3 energy=0.5898751166 pbc="T T T"
O        0.01544949       0.01989751       0.00000000
H        0.95621587      -0.25106491       0.00000000
H       -0.48010356       0.86422564       0.00000000
3
Lattice="15.0 0.0 0.0 0.0 15.0 0.0 0.0 0.0 15.0" Properties=species:S:1:pos:R:3 energy=0.7329287634 pbc="T T T"
O        0.01386929       0.01786156       0.00000000
H        0.99268834      -0.25349696       0.00000000
H       -0.49149704       0.89896985       0.00000000
3
Lattice="15.0 0.0 0.0 0.0 15.0 0.0 0.0 0.0 15.0" Properties=species:S:1:pos:R:3 energy=0.9657514963 pbc="T T T"
O        0.01228908       0.01582561       0.00000000
H        1.02916082      -0.25592900       0.00000000
H       -0.50289053       0.93371406       0.00000000
3
Lattice="15.0 0.0 0.0 0.0 15.0 0.0 0.0 0.0 15.0" Properties=species:S:1:pos:R:3 energy=1.2654481614 pbc="T T T"
O        0.01070887       0.01378966       0.00000000
H        1.06563330      -0.25836104       0.00000000
H       -0.51428402       0.96845826       0.00000000
3
Lattice="15.0 0.0 0.0 0.0 15.0 0.0 0.0 0.0 15.0" Properties=species:S:1:pos:R:3 energy=1.6135231905 pbc="T T T"
O        0.00912867       0.01175371       0.00000000
H        1.10210578      -0.26079308       0.00000000
H       -0.52567750       1.00320247       0.00000000
3
Lattice="15.0 0.0 0.0 0.0 15.0 0.0 0.0 0.0 15.0" Properties=species:S:1:pos:R:3 energy=1.995127439 pbc="T T T"
O        0.00754846       0.00971777       0.00000000
H        1.13857826      -0.26322512       0.00000000
H       -0.53707099       1.03794668       0.00000000
3
Lattice="15.0 0.0 0.0 0.0 15.0 0.0 0.0 0.0 15.0" Properties=species:S:1:pos:R:3 energy=2.3984100246 pbc="T T T"
O        0.00596825       0.00768182       0.00000000
H        1.17505074      -0.26565716       0.00000000
H       -0.54846448       1.07269089       0.00000000
3
Lattice="15.0 0.0 0.0 0.0 15.0 0.0 0.0 0.0 15.0" Properties=species:S:1:pos:R:3 energy=2.8139611765 pbc="T T T"
O        0.00438805       0.00564587       0.00000000
H        1.21152321      -0.26808920       0.00000000
H       -0.55985796       1.10743509       0.00000000
3
Lattice="15.0 0.0 0.0 0.0 15.0 0.0 0.0 0.0 15.0" Properties=species:S:1:pos:R:3 energy=2.6447761501 pbc="T T T"
O        0.02114345       0.02723475       0.00000000
H        0.77422716      -0.20303829       0.00000000
H       -0.38848104       0.69975057       0.00000000
3
Lattice="15.0 0.0 0.0 0.0 15.0 0.0 0.0 0.0 15.0" Properties=species:S:1:pos:R:3 energy=1.6484274394 pbc="T T T"
O        0.01956325       0.02519880       0.00000000
H        0.81069963      -0.20547033       0.00000000
H       -0.39987453       0.73449478       0.00000000
3
Lattice="15.0 0.0 0.0 0.0 15.0 0.0 0.0 0.0 15.0" Properties=species:S:1:pos:R:3 energy=0.9962369236 pbc="T T T"
O        0.01798304       0.02316285       0.00000000
H        0.84717211      -0.20790237       0.00000000
H       -0.41126801       0.76923899       0.00000000
3
Lattice="15.0 0.0 0.0 0.0 15.0 0.0 0.0 0.0 15.0" Properties=species:S:1:pos:R:3 energy=0.614921845 pbc="T T T"
O        0.01640283       0.02112690       0.00000000
H        0.88364459      -0.21033442       0.00000000
H       -0.42266150       0.80398319       0.00000000
3
Lattice="15.0 0.0 0.0 0.0 15.0 0.0 0.0 0.0 15.0" Properties=species:S:1:pos:R:3 energy=0.4459035264 pbc="T T T"
O        0.01482263       0.01909095       0.00000000
H        0.92011707      -0.21276646       0.00000000
H       -0.43405499       0.83872740       0.00000000
3
Lattice="15.0 0.0 0.0 0.0 15.0 0.0 0.0 0.0 15.0" Properties=species:S:1:pos:R:3 energy=0.4422224545 pbc="T T T"
O        0.01324242       0.01705501       0.00000000
H        0.95658955      -0.21519850       0.00000000
H       -0.44544847       0.87347161       0.00000000
3
Lattice="15.0 0.0 0.0 0.0 15.0 0.0 0.0 0.0 15.0" Properties=species:S:1:pos:R:3 energy=0.5660813474 pbc="T T T"
O        0.01166222       0.01501906       0.00000000
H        0.99306203      -0.21763054       0.00000000
H       -0.45684196       0.90821582       0.00000000
3
Lattice="15.0 0.0 0.0 0.0 15.0 0.0 0.0 0.0 15.0" Properties=species:S:1:pos:R:3 energy=0.7869750005 pbc="T T T"
O        0.01008201       0.01298311       0.00000000
H        1.02953450      -0.22006258       0.00000000
H       -0.46823545       0.94296002       0.00000000
3
Lattice="15.0 0.0 0.0 0.0 15.0 0.0 0.0 0.0 15.0" Properties=species:S:1:pos:R:3 energy=1.0802913385 pbc="T T T"
O        0.00850180       0.01094716       0.00000000
H        1.06600698      -0.22249462       0.00000000
H       -0.47962893       0.97770423       0.00000000
3
Lattice="15.0 0.0 0.0 0.0 15.0 0.0 0.0 0.0 15.0" Properties=species:S:1:pos:R:3 energy=1.4262358983 pbc="T T T"
O        0.00692160       0.00891121       0.00000000
H        1.10247946      -0.22492666       0.00000000
H       -0.49102242       1.01244844       0.00000000
3
Lattice="15.0 0.0 0.0 0.0 15.0 0.0 0.0 0.0 15.0" Properties=species:S:1:pos:R:3 energy=1.8089634519 pbc="T T T"
O        0.00534139       0.00687527       0.00000000
H        1.13895194      -0.22735870       0.00000000
H       -0.50241591       1.04719265       0.00000000
3
Lattice="15.0 0.0 0.0 0.0 15.0 0.0 0.0 0.0 15.0" Properties=species:S:1:pos:R:3 energy=2.2158522646 pbc="T T T"
O        0.00376118       0.00483932       0.00000000
H        1.17542442      -0.22979074       0.00000000
H       -0.51380939       1.08193685       0.00000000
3
Lattice="15.0 0.0 0.0 0.0 15.0 0.0 0.0 0.0 15.0" Properties=species:S:1:pos:R:3 energy=2.6368928537 pbc="T T T"
O        0.00218098       0.00280337       0.00000000
H        1.21189689      -0.23222278       0.00000000
H       -0.52520288       1.11668106       0.00000000
3
Lattice="15.0 0.0 0.0 0.0 15.0 0.0 0.0 0.0 15.0" Properties=species:S:1:pos:R:3 energy=2.7987153662 pbc="T T T"
O        0.01893638       0.02439225       0.00000000
H        0.77460084      -0.16717188       0.00000000
H       -0.35382596       0.70899654       0.00000000
3
Lattice="15.0 0.0 0.0 0.0 15.0 0.0 0.0 0.0 15.0" Properties=species:S:1:pos:R:3 energy=1.7032362947 pbc="T T T"
O        0.01735618       0.02235630       0.00000000
H        0.81107331      -0.16960392       0.00000000
H       -0.36521944       0.74374075       0.00000000
3
Lattice="15.0 0.0 0.0 0.0 15.0 0.0 0.0 0.0 15.0" Properties=species:S:1:pos:R:3 energy=0.979547454 pbc="T T T"
O        0.01577597       0.02032035       0.00000000
H        0.84754579      -0.17203596       0.00000000
H       -0.37661293       0.77848496       0.00000000
3
Lattice="15.0 0.0 0.0 0.0 15.0 0.0 0.0 0.0 15.0" Properties=species:S:1:pos:R:3 energy=0.5471046275 pbc="T T T"
O        0.01419576       0.01828440       0.00000000
H        0.88401827      -0.17446800       0.00000000
H       -0.38800642       0.81322916       0.00000000
3
Lattice="15.0 0.0 0.0 0.0 15.0 0.0 0.0 0.0 15.0" Properties=species:S:1:pos:R:3 energy=0.3420083621 pbc="T T T"
O        0.01261556       0.01624845       0.00000000
H        0.92049075      -0.17690004       0.00000000
H       -0.39939990       0.84797337       0.00000000
3
Lattice="15.0 0.0 0.0 0.0 15.0 0.0 0.0 0.0 15.0" Properties=species:S:1:pos:R:3 energy=0.3134158786 pbc="T T T"
O        0.01103535       0.01421250       0.00000000
H        0.95696323      -0.17933208       0.00000000
H       -0.41079339       0.88271758       0.00000000
3
Lattice="15.0 0.0 0.0 0.0 15.0 0.0 0.0 0.0 15.0" Properties=species:S:1:pos:R:3 energy=0.4207104062 pbc="T T T"
O        0.00945514       0.01217656       0.00000000
H        0.99343571      -0.18176412       0.00000000
H       -0.42218688       0.91746179       0.00000000
3
Lattice="15.0 0.0 0.0 0.0 15.0 0.0 0.0 0.0 15.0" Properties=species:S:1:pos:R:3 energy=0.631337032 pbc="T T T"
O        0.00787494       0.01014061       0.00000000
H        1.02990818      -0.18419616       0.00000000
H       -0.43358036       0.95220599       0.00000000
3
Lattice="15.0 0.0 0.0 0.0 15.0 0.0 0.0 0.0 15.0" Properties=species:S:1:pos:R:3 energy=0.9191778268 pbc="T T T"
O        0.00629473       0.00810466       0.00000000
H        1.06638066      -0.18662820       0.00000000
H       -0.44497385       0.98695020       0.00000000
3
Lattice="15.0 0.0 0.0 0.0 15.0 0.0 0.0 0.0 15.0" Properties=species:S:1:pos:R:3 energy=1.2633118227 pbc="T T T"
O        0.00471453       0.00606871       0.00000000
H        1.10285314      -0.18906025       0.00000000
H       -0.45636734       1.02169441       0.00000000
3
Lattice="15.0 0.0 0.0 0.0 15.0 0.0 0.0 0.0 15.0" Properties=species:S:1:pos:R:3 energy=1.6470347851 pbc="T T T"
O        0.00313432       0.00403276       0.00000000
H        1.13932562      -0.19149229       0.00000000
H       -0.46776082       1.05643862       0.00000000
3
Lattice="15.0 0.0 0.0 0.0 15.0 0.0 0.0 0.0 15.0" Properties=species:S:1:pos:R:3 energy=2.0570601916 pbc="T T T"
O        0.00155411       0.00199682       0.00000000
H        1.17579810      -0.19392433       0.00000000
H       -0.47915431       1.09118282       0.00000000
3
Lattice="15.0 0.0 0.0 0.0 15.0 0.0 0.0 0.0 15.0" Properties=species:S:1:pos:R:3 energy=2.4828601338 pbc="T T T"
O       -0.00002609      -0.00003913       0.00000000
H        1.21227058      -0.19635637       0.00000000
H       -0.49054780       1.12592703       0.00000000
3
Lattice="15.0 0.0 0.0 0.0 15.0 0.0 0.0 0.0 15.0" Properties=species:S:1:pos:R:3 energy=2.9242391551 pbc="T T T"
O        0.01672931       0.02154974       0.00000000
H        0.77497452      -0.13130546       0.00000000
H       -0.31917087       0.71824251       0.00000000
3
Lattice="15.0 0.0 0.0 0.0 15.0 0.0 0.0 0.0 15.0" Properties=species:S:1:pos:R:3 energy=1.7463365096 pbc="T T T"
O        0.01514911       0.01951380       0.00000000
H        0.81144700      -0.13373750       0.00000000
H       -0.33056436       0.75298672       0.00000000
3
Lattice="15.0 0.0 0.0 0.0 15.0 0.0 0.0 0.0 15.0" Properties=species:S:1:pos:R:3 energy=0.9633880242 pbc="T T T"
O        0.01356890       0.01747785       0.00000000
H        0.84791947      -0.13616954       0.00000000
H       -0.34195784       0.78773092       0.00000000
3
Lattice="15.0 0.0 0.0 0.0 15.0 0.0 0.0 0.0 15.0" Properties=species:S:1:pos:R:3 energy=0.4886839613 pbc="T T T"
O        0.01198869       0.01544190       0.00000000
H        0.88439195      -0.13860158       0.00000000
H       -0.35335133       0.82247513       0.00000000
3
Lattice="15.0 0.0 0.0 0.0 15.0 0.0 0.0 0.0 15.0" Properties=species:S:1:pos:R:3 energy=0.2538328237 pbc="T T T"
O        0.01040849       0.01340595       0.00000000
H        0.92086443      -0.14103362       0.00000000
H       -0.36474482       0.85721934       0.00000000
3
Lattice="15.0 0.0 0.0 0.0 15.0 0.0 0.0 0.0 15.0" Properties=species:S:1:pos:R:3 energy=0.2047200598 pbc="T T T"
O        0.00882828       0.01137000       0.00000000
H        0.95733691      -0.14346567       0.00000000
H       -0.37613831       0.89196355       0.00000000
3
Lattice="15.0 0.0 0.0 0.0 15.0 0.0 0.0 0.0 15.0" Properties=species:S:1:pos:R:3 energy=0.2983631494 pbc="T T T"
O        0.00724807       0.00933406       0.00000000
H        0.99380939      -0.14589771       0.00000000
H       -0.38753179       0.92670775       0.00000000
3
Lattice="15.0 0.0 0.0 0.0 15.0 0.0 0.0 0.0 15.0" Properties=species:S:1:pos:R:3 energy=0.5005037058 pbc="T T T"
O        0.00566787       0.00729811       0.00000000
H        1.03028186      -0.14832975       0.00000000
H       -0.39892528       0.96145196       0.00000000
3
Lattice="15.0 0.0 0.0 0.0 15.0 0.0 0.0 0.0 15.0" Properties=species:S:1:pos:R:3 energy=0.7837876411 pbc="T T T"
O        0.00408766       0.00526216       0.00000000
H        1.06675434      -0.15076179       0.00000000
H       -0.41031877       0.99619617       0.00000000
3
Lattice="15.0 0.0 0.0 0.0 15.0 0.0 0.0 0.0 15.0" Properties=species:S:1:pos:R:3 energy=1.1263790561 pbc="T T T"
O        0.00250746       0.00322621       0.00000000
H        1.10322682      -0.15319383       0.00000000
H       -0.42171225       1.03094038       0.00000000
3
Lattice="15.0 0.0 0.0 0.0 15.0 0.0 0.0 0.0 15.0" Properties=species:S:1:pos:R:3 energy=1.5108791295 pbc="T T T"
O        0.00092725       0.00119026       0.00000000
H        1.13969930      -0.15562587       0.00000000
H       -0.43310574       1.06568458       0.00000000
3
Lattice="15.0 0.0 0.0 0.0 15.0 0.0 0.0 0.0 15.0" Properties=species:S:1:pos:R:3 energy=1.923462224 pbc="T T T"
O       -0.00065296      -0.00084568       0.00000000
H        1.17617178      -0.15805791       0.00000000
H       -0.44449923       1.10042879       0.00000000
3
Lattice="15.0 0.0 0.0 0.0 15.0 0.0 0.0 0.0 15.0" Properties=species:S:1:pos:R:3 energy=2.3531773812 pbc="T T T"
O       -0.00223316      -0.00288163       0.00000000
H        1.21264426      -0.16048995       0.00000000
H       -0.45589271       1.13517300       0.00000000
3
Lattice="15.0 0.0 0.0 0.0 15.0 0.0 0.0 0.0 15.0" Properties=species:S:1:pos:R:3 energy=3.015549935 pbc="T T T"
O        0.01452224       0.01870724       0.00000000
H        0.77534820      -0.09543904       0.00000000
H       -0.28451579       0.72748848       0.00000000
3
Lattice="15.0 0.0 0.0 0.0 15.0 0.0 0.0 0.0 15.0" Properties=species:S:1:pos:R:3 energy=1.7749533964 pbc="T T T"
O        0.01294204       0.01667130       0.00000000
H        0.81182068      -0.09787109       0.00000000
H       -0.29590927       0.76223268       0.00000000
3
Lattice="15.0 0.0 0.0 0.0 15.0 0.0 0.0 0.0 15.0" Properties=species:S:1:pos:R:3 energy=0.946909987 pbc="T T T"
O        0.01136183       0.01463535       0.00000000
H        0.84829315      -0.10030313       0.00000000
H       -0.30730276       0.79697689       0.00000000
3
Lattice="15.0 0.0 0.0 0.0 15.0 0.0 0.0 0.0 15.0" Properties=species:S:1:pos:R:3 energy=0.4399959753 pbc="T T T"
O        0.00978162       0.01259940       0.00000000
H        0.88476563      -0.10273517       0.00000000
H       -0.31869625       0.83172110       0.00000000
3
Lattice="15.0 0.0 0.0 0.0 15.0 0.0 0.0 0.0 15.0" Properties=species:S:1:pos:R:3 energy=0.1824011558 pbc="T T T"
O        0.00820142       0.01056345       0.00000000
H        0.92123811      -0.10516721       0.00000000
H       -0.33008973       0.86646531       0.00000000
3
Lattice="15.0 0.0 0.0 0.0 15.0 0.0 0.0 0.0 15.0" Properties=species:S:1:pos:R:3 energy=0.1175247271 pbc="T T T"
O        0.00662121       0.00852750       0.00000000
H        0.95771059      -0.10759925       0.00000000
H       -0.34148322       0.90120952       0.00000000
3
Lattice="15.0 0.0 0.0 0.0 15.0 0.0 0.0 0.0 15.0" Properties=species:S:1:pos:R:3 energy=0.2005923973 pbc="T T T"
O        0.00504100       0.00649155       0.00000000
H        0.99418307      -0.11003129       0.00000000
H       -0.35287671       0.93595372       0.00000000
3
Lattice="15.0 0.0 0.0 0.0 15.0 0.0 0.0 0.0 15.0" Properties=species:S:1:pos:R:3 energy=0.3960666403 pbc="T T T"
O        0.00346080       0.00445561       0.00000000
H        1.03065555      -0.11246333       0.00000000
H       -0.36427019       0.97069793       0.00000000
3
Lattice="15.0 0.0 0.0 0.0 15.0 0.0 0.0 0.0 15.0" Properties=species:S:1:pos:R:3 energy=0.675676663 pbc="T T T"
O        0.00188059       0.00241966       0.00000000
H        1.06712802      -0.11489537       0.00000000
H       -0.37566368       1.00544214       0.00000000
3
Lattice="15.0 0.0 0.0 0.0 15.0 0.0 0.0 0.0 15.0" Properties=species:S:1:pos:R:3 energy=1.0169142327 pbc="T T T"
O        0.00030039       0.00038371       0.00000000
H        1.10360050      -0.11732741       0.00000000
H       -0.38705717       1.04018635       0.00000000
3
Lattice="15.0 0.0 0.0 0.0 15.0 0.0 0.0 0.0 15.0" Properties=species:S:1:pos:R:3 energy=1.4018698355 pbc="T T T"
O       -0.00127982      -0.00165224       0.00000000
H        1.14007298      -0.11975945       0.00000000
H       -0.39845065       1.07493055       0.00000000
3
Lattice="15.0 0.0 0.0 0.0 15.0 0.0 0.0 0.0 15.0" Properties=species:S:1:pos:R:3 energy=1.8163186025 pbc="T T T"
O       -0.00286003      -0.00368819       0.00000000
H        1.17654546      -0.12219149       0.00000000
H       -0.40984414       1.10967476       0.00000000
3
Lattice="15.0 0.0 0.0 0.0 15.0 0.0 0.0 0.0 15.0" Properties=species:S:1:pos:R:3 energy=2.2489918932 pbc="T T T"
O       -0.00444023      -0.00572413       0.00000000
H        1.21301794      -0.12462354       0.00000000
H       -0.42123763       1.14441897       0.00000000
3
Lattice="15.0 0.0 0.0 0.0 15.0 0.0 0.0 0.0 15.0" Properties=species:S:1:pos:R:3 energy=3.0695823107 pbc="T T T"
O        0.01231517       0.01586474       0.00000000
H        0.77572188      -0.05957263       0.00000000
H       -0.24986070       0.73673445       0.00000000
3
Lattice="15.0 0.0 0.0 0.0 15.0 0.0 0.0 0.0 15.0" Properties=species:S:1:pos:R:3 energy=1.7880452486 pbc="T T T"
O        0.01073497       0.01382879       0.00000000
H        0.81219436      -0.06200467       0.00000000
H       -0.26125419       0.77147865       0.00000000
3
Lattice="15.0 0.0 0.0 0.0 15.0 0.0 0.0 0.0 15.0" Properties=species:S:1:pos:R:3 energy=0.9303159777 pbc="T T T"
O        0.00915476       0.01179285       0.00000000
H        0.84866683      -0.06443671       0.00000000
H       -0.27264768       0.80622286       0.00000000
3
Lattice="15.0 0.0 0.0 0.0 15.0 0.0 0.0 0.0 15.0" Properties=species:S:1:pos:R:3 energy=0.4019677423 pbc="T T T"
O        0.00757455       0.00975690       0.00000000
H        0.88513931      -0.06686875       0.00000000
H       -0.28404116       0.84096707       0.00000000
3
Lattice="15.0 0.0 0.0 0.0 15.0 0.0 0.0 0.0 15.0" Properties=species:S:1:pos:R:3 energy=0.1290229228 pbc="T T T"
O        0.00599435       0.00772095       0.00000000
H        0.92161179      -0.06930079       0.00000000
H       -0.29543465       0.87571128       0.00000000
3
Lattice="15.0 0.0 0.0 0.0 15.0 0.0 0.0 0.0 15.0" Properties=species:S:1:pos:R:3 energy=0.053304248 pbc="T T T"
O        0.00441414       0.00568500       0.00000000
H        0.95808427      -0.07173283       0.00000000
H       -0.30682814       0.91045548       0.00000000
3
Lattice="15.0 0.0 0.0 0.0 15.0 0.0 0.0 0.0 15.0" Properties=species:S:1:pos:R:3 energy=0.1289054376 pbc="T T T"
O        0.00283393       0.00364905       0.00000000
H        0.99455675      -0.07416487       0.00000000
H       -0.31822162       0.94519969       0.00000000
3
Lattice="15.0 0.0 0.0 0.0 15.0 0.0 0.0 0.0 15.0" Properties=species:S:1:pos:R:3 energy=0.3194907388 pbc="T T T"
O        0.00125373       0.00161311       0.00000000
H        1.03102923      -0.07659691       0.00000000
H       -0.32961511       0.97994390       0.00000000
3
Lattice="15.0 0.0 0.0 0.0 15.0 0.0 0.0 0.0 15.0" Properties=species:S:1:pos:R:3 energy=0.5962263194 pbc="T T T"
O       -0.00032648      -0.00042284       0.00000000
H        1.06750170      -0.07902896       0.00000000
H       -0.34100860       1.01468811       0.00000000
3
Lattice="15.0 0.0 0.0 0.0 15.0 0.0 0.0 0.0 15.0" Properties=species:S:1:pos:R:3 energy=0.9361941813 pbc="T T T"
O       -0.00190668      -0.00245879       0.00000000
H        1.10397418      -0.08146100       0.00000000
H       -0.35240208       1.04943231       0.00000000
3
Lattice="15.0 0.0 0.0 0.0 15.0 0.0 0.0 0.0 15.0" Properties=species:S:1:pos:R:3 energy=1.3211712077 pbc="T T T"
O       -0.00348689      -0.00449474       0.00000000
H        1.14044666      -0.08389304       0.00000000
H       -0.36379557       1.08417652       0.00000000
3
Lattice="15.0 0.0 0.0 0.0 15.0 0.0 0.0 0.0 15.0" Properties=species:S:1:pos:R:3 energy=1.7366807017 pbc="T T T"
O       -0.00506710      -0.00653069       0.00000000
H        1.17691914      -0.08632508       0.00000000
H       -0.37518906       1.11892073       0.00000000
3
Lattice="15.0 0.0 0.0 0.0 15.0 0.0 0.0 0.0 15.0" Properties=species:S:1:pos:R:3 energy=2.1712475157 pbc="T T T"
O       -0.00664730      -0.00856663       0.00000000
H        1.21339162      -0.08875712       0.00000000
H       -0.38658254       1.15366494       0.00000000
3
Lattice="15.0 0.0 0.0 0.0 15.0 0.0 0.0 0.0 15.0" Properties=species:S:1:pos:R:3 energy=3.0865633339 pbc="T T T"
O        0.01010810       0.01302224       0.00000000
H        0.77609556      -0.02370621       0.00000000
H       -0.21520562       0.74598041       0.00000000
3
Lattice="15.0 0.0 0.0 0.0 15.0 0.0 0.0 0.0 15.0" Properties=species:S:1:pos:R:3 energy=1.7866137528 pbc="T T T"
O        0.00852790       0.01098629       0.00000000
H        0.81256804      -0.02613825       0.00000000
H       -0.22659911       0.78072462       0.00000000
3
Lattice="15.0 0.0 0.0 0.0 15.0 0.0 0.0 0.0 15.0" Properties=species:S:1:pos:R:3 energy=0.9150137446 pbc="T T T"
O        0.00694769       0.00895035       0.00000000
H        0.84904052      -0.02857029       0.00000000
H       -0.23799259       0.81546883       0.00000000
3
Lattice="15.0 0.0 0.0 0.0 15.0 0.0 0.0 0.0 15.0" Properties=species:S:1:pos:R:3 energy=0.3761789186 pbc="T T T"
O        0.00536748       0.00691440       0.00000000
H        0.88551299      -0.03100233       0.00000000
H       -0.24938608       0.85021304       0.00000000
3
Lattice="15.0 0.0 0.0 0.0 15.0 0.0 0.0 0.0 15.0" Properties=species:S:1:pos:R:3 energy=0.0953012861 pbc="T T T"
O        0.00378728       0.00487845       0.00000000