3
Lattice="15.0 0.0 0.0 0.0 15.0 0.0 0.0 0.0 15.0" Properties=species:S:1:pos:R:3 energy=3.3854352845 pbc="T T T"
O        0.03679397       0.01243924       0.00000000
H        0.74010119      -0.32279511       0.00000000
H       -0.60274287       1.05432366       0.00000000
3
Lattice="15.0 0.0 0.0 0.0 15.0 0.0 0.0 0.0 15.0" Properties=species:S:1:pos:R:3 energy=2.5639309753 pbc="T T T"
O        0.03397224       0.01462979       0.00000000
H        0.77599574      -0.32279555       0.00000000
H       -0.59385468       1.01955866       0.00000000
3
Lattice="15.0 0.0 0.0 0.0 15.0 0.0 0.0 0.0 15.0" Properties=species:S:1:pos:R:3 energy=1.9408650046 pbc="T T T"
O        0.03115052       0.01682033       0.00000000
H        0.81189029      -0.32279599       0.00000000
H       -0.58496649       0.98479367       0.00000000
3
Lattice="15.0 0.0 0.0 0.0 15.0 0.0 0.0 0.0 15.0" Properties=species:S:1:pos:R:3 energy=1.4857765143 pbc="T T T"
O        0.02832880       0.01901088       0.00000000
H        0.84778485      -0.32279643       0.00000000
H       -0.57607830       0.95002868       0.00000000
3
Lattice="15.0 0.0 0.0 0.0 15.0 0.0 0.0 0.0 15.0" Properties=species:S:1:pos:R:3 energy=1.1761147921 pbc="T T T"
O        0.02550708       0.02120142       0.00000000
H        0.88367940      -0.32279687       0.00000000
H       -0.56719011       0.91526369       0.00000000
3
Lattice="15.0 0.0 0.0 0.0 15.0 0.0 0.0 0.0 15.0" Properties=species:S:1:pos:R:3 energy=0.996369307 pbc="T T T"
O        0.02268535       0.02339196       0.00000000
H        0.91957395      -0.32279731       0.00000000
H       -0.55830192       0.88049870       0.00000000
3
Lattice="15.0 0.0 0.0 0.0 15.0 0.0 0.0 0.0 15.0" Properties=species:S:1:pos:R:3 energy=0.9374659027 pbc="T T T"
O        0.01986363       0.02558251       0.00000000
H        0.95546850      -0.32279775       0.00000000
H       -0.54941373       0.84573370       0.00000000
3
Lattice="15.0 0.0 0.0 0.0 15.0 0.0 0.0 0.0 15.0" Properties=species:S:1:pos:R:3 energy=0.9964104316 pbc="T T T"
O        0.01704191       0.02777305       0.00000000
H        0.99136306      -0.32279819       0.00000000
H       -0.54052553       0.81096871       0.00000000
3
Lattice="15.0 0.0 0.0 0.0 15.0 0.0 0.0 0.0 15.0" Properties=species:S:1:pos:R:3 energy=1.1761707523 pbc="T T T"
O        0.01422019       0.02996360       0.00000000
H        1.02725761      -0.32279863       0.00000000
H       -0.53163734       0.77620372       0.00000000
3
Lattice="15.0 0.0 0.0 0.0 15.0 0.0 0.0 0.0 15.0" Properties=species:S:1:pos:R:3 energy=1.4857928983 pbc="T T T"
O        0.01139847       0.03215414       0.00000000
H        1.06315216      -0.32279907       0.00000000
H       -0.52274915       0.74143873       0.00000000
3
Lattice="15.0 0.0 0.0 0.0 15.0 0.0 0.0 0.0 15.0" Properties=species:S:1:pos:R:3 energy=1.9407556366 pbc="T T T"
O        0.00857674       0.03434469       0.00000000
H        1.09904672      -0.32279951       0.00000000
H       -0.51386096       0.70667374       0.00000000
3
Lattice="15.0 0.0 0.0 0.0 15.0 0.0 0.0 0.0 15.0" Properties=species:S:1:pos:R:3 energy=2.5635719184 pbc="T T T"
O        0.00575502       0.03653523       0.00000000
H        1.13494127      -0.32279995       0.00000000
H       -0.50497277       0.67190874       0.00000000
3
Lattice="15.0 0.0 0.0 0.0 15.0 0.0 0.0 0.0 15.0" Properties=species:S:1:pos:R:3 energy=3.3846566089 pbc="T T T"
O        0.00293330       0.03872578       0.00000000
H        1.17083582      -0.32280039       0.00000000
H       -0.49608458       0.63714375       0.00000000
3
Lattice="15.0 0.0 0.0 0.0 15.0 0.0 0.0 0.0 15.0" Properties=species:S:1:pos:R:3 energy=4.4434686371 pbc="T T T"
O        0.00011158       0.04091632       0.00000000
H        1.20673037      -0.32280083       0.00000000
H       -0.48719639       0.60237876       0.00000000
3
Lattice="15.0 0.0 0.0 0.0 15.0 0.0 0.0 0.0 15.0" Properties=species:S:1:pos:R:3 energy=3.4443968749 pbc="T T T"
O        0.03458690       0.00959674       0.00000000
H        0.74047487      -0.28692869       0.00000000
H       -0.56808779       1.06356962       0.00000000
3
Lattice="15.0 0.0 0.0 0.0 15.0 0.0 0.0 0.0 15.0" Properties=species:S:1:pos:R:3 energy=2.5370928071 pbc="T T T"
O        0.03176517       0.01178729       0.00000000
H        0.77636942      -0.28692913       0.00000000
H       -0.55919960       1.02880463       0.00000000
3
Lattice="15.0 0.0 0.0 0.0 15.0 0.0 0.0 0.0 15.0" Properties=species:S:1:pos:R:3 energy=1.8521408466 pbc="T T T"
O        0.02894345       0.01397783       0.00000000
H        0.81226397      -0.28692957       0.00000000
H       -0.55031141       0.99403964       0.00000000
3
Lattice="15.0 0.0 0.0 0.0 15.0 0.0 0.0 0.0 15.0" Properties=species:S:1:pos:R:3 energy=1.3536830288 pbc="T T T"
O        0.02612173       0.01616837       0.00000000
H        0.84815853      -0.28693001       0.00000000
H       -0.54142322       0.95927465       0.00000000
3
Lattice="15.0 0.0 0.0 0.0 15.0 0.0 0.0 0.0 15.0" Properties=species:S:1:pos:R:3 energy=1.0154327387 pbc="T T T"
O        0.02330001       0.01835892       0.00000000
H        0.88405308      -0.28693045       0.00000000
H       -0.53253502       0.92450966       0.00000000
3
Lattice="15.0 0.0 0.0 0.0 15.0 0.0 0.0 0.0 15.0" Properties=species:S:1:pos:R:3 energy=0.8194442005 pbc="T T T"
O        0.02047828       0.02054946       0.00000000
H        0.91994763      -0.28693089       0.00000000
H       -0.52364683       0.88974466       0.00000000
3
Lattice="15.0 0.0 0.0 0.0 15.0 0.0 0.0 0.0 15.0" Properties=species:S:1:pos:R:3 energy=0.7552709957 pbc="T T T"
O        0.01765656       0.02274001       0.00000000
H        0.95584219      -0.28693133       0.00000000
H       -0.51475864       0.85497967       0.00000000
3
Lattice="15.0 0.0 0.0 0.0 15.0 0.0 0.0 0.0 15.0" Properties=species:S:1:pos:R:3 energy=0.8194750174 pbc="T T T"
O        0.01483484       0.02493055       0.00000000
H        0.99173674      -0.28693177       0.00000000
H       -0.50587045       0.82021468       0.00000000
3
Lattice="15.0 0.0 0.0 0.0 15.0 0.0 0.0 0.0 15.0" Properties=species:S:1:pos:R:3 energy=1.0154649243 pbc="T T T"
O        0.01201312       0.02712110       0.00000000
H        1.02763129      -0.28693221       0.00000000
H       -0.49698226       0.78544969       0.00000000
3
Lattice="15.0 0.0 0.0 0.0 15.0 0.0 0.0 0.0 15.0" Properties=species:S:1:pos:R:3 energy=1.3536555889 pbc="T T T"
O        0.00919139       0.02931164       0.00000000
H        1.06352584      -0.28693265       0.00000000
H       -0.48809407       0.75068470       0.00000000
3
Lattice="15.0 0.0 0.0 0.0 15.0 0.0 0.0 0.0 15.0" Properties=species:S:1:pos:R:3 energy=1.8519567017 pbc="T T T"
O        0.00636967       0.03150219       0.00000000
H        1.09942040      -0.28693309       0.00000000
H       -0.47920588       0.71591970       0.00000000
3
Lattice="15.0 0.0 0.0 0.0 15.0 0.0 0.0 0.0 15.0" Properties=species:S:1:pos:R:3 energy=2.5366109914 pbc="T T T"
O        0.00354795       0.03369273       0.00000000
H        1.13531495      -0.28693353       0.00000000
H       -0.47031769       0.68115471       0.00000000
3
Lattice="15.0 0.0 0.0 0.0 15.0 0.0 0.0 0.0 15.0" Properties=species:S:1:pos:R:3 energy=3.4434225413 pbc="T T T"
O        0.00072623       0.03588328       0.00000000
H        1.17120950      -0.28693397       0.00000000
H       -0.46142949       0.64638972       0.00000000
3
Lattice="15.0 0.0 0.0 0.0 15.0 0.0 0.0 0.0 15.0" Properties=species:S:1:pos:R:3 energy=4.6194174454 pbc="T T T"
O       -0.00209549       0.03807382       0.00000000
H        1.20710405      -0.28693441       0.00000000
H       -0.45254130       0.61162473       0.00000000
3
Lattice="15.0 0.0 0.0 0.0 15.0 0.0 0.0 0.0 15.0" Properties=species:S:1:pos:R:3 energy=3.5072519819 pbc="T T T"
O        0.03237983       0.00675424       0.00000000
H        0.74084855      -0.25106227       0.00000000
H       -0.53343270       1.07281559       0.00000000
3
Lattice="15.0 0.0 0.0 0.0 15.0 0.0 0.0 0.0 15.0" Properties=species:S:1:pos:R:3 energy=2.5180449865 pbc="T T T"
O        0.02955810       0.00894478       0.00000000
H        0.77674310      -0.25106271       0.00000000
H       -0.52454451       1.03805060       0.00000000
3
Lattice="15.0 0.0 0.0 0.0 15.0 0.0 0.0 0.0 15.0" Properties=species:S:1:pos:R:3 energy=1.7744674881 pbc="T T T"
O        0.02673638       0.01113533       0.00000000
H        0.81263766      -0.25106315       0.00000000
H       -0.51565632       1.00328561       0.00000000
3
Lattice="15.0 0.0 0.0 0.0 15.0 0.0 0.0 0.0 15.0" Properties=species:S:1:pos:R:3 energy=1.2351768142 pbc="T T T"
O        0.02391466       0.01332587       0.00000000
H        0.84853221      -0.25106359       0.00000000
H       -0.50676813       0.96852062       0.00000000
3
Lattice="15.0 0.0 0.0 0.0 15.0 0.0 0.0 0.0 15.0" Properties=species:S:1:pos:R:3 energy=0.8701324465 pbc="T T T"
O        0.02109294       0.01551642       0.00000000
H        0.88442676      -0.25106403       0.00000000
H       -0.49787994       0.93375563       0.00000000
3
Lattice="15.0 0.0 0.0 0.0 15.0 0.0 0.0 0.0 15.0" Properties=species:S:1:pos:R:3 energy=0.6589655794 pbc="T T T"
O        0.01827121       0.01770696       0.00000000
H        0.92032131      -0.25106447       0.00000000
H       -0.48899175       0.89899063       0.00000000
3
Lattice="15.0 0.0 0.0 0.0 15.0 0.0 0.0 0.0 15.0" Properties=species:S:1:pos:R:3 energy=0.5898751166 pbc="T T T"
O        0.01544949       0.01989751       0.00000000
H        0.95621587      -0.25106491       0.00000000
H       -0.48010356       0.86422564       0.00000000
3
Lattice="15.0 0.0 0.0 0.0 15.0 0.0 0.0 0.0 15.0" Properties=species:S:1:pos:R:3 energy=0.6589867744 pbc="T T T"
O        0.01262777       0.02208805       0.00000000
H        0.99211042      -0.25106535       0.00000000
H       -0.47121537       0.82946065       0.00000000
3
Lattice="15.0 0.0 0.0 0.0 15.0 0.0 0.0 0.0 15.0" Properties=species:S:1:pos:R:3 energy=0.8701424412 pbc="T T T"
O        0.00980605       0.02427860       0.00000000
H        1.02800497      -0.25106579       0.00000000
H       -0.46232717       0.79469566       0.00000000
3
Lattice="15.0 0.0 0.0 0.0 15.0 0.0 0.0 0.0 15.0" Properties=species:S:1:pos:R:3 energy=1.2351084048 pbc="T T T"
O        0.00698432       0.02646914       0.00000000
H        1.06389952      -0.25106623       0.00000000
H       -0.45343898       0.75993066       0.00000000
3
Lattice="15.0 0.0 0.0 0.0 15.0 0.0 0.0 0.0 15.0" Properties=species:S:1:pos:R:3 energy=1.7742129147 pbc="T T T"
O        0.00416260       0.02865969       0.00000000
H        1.09979408      -0.25106668       0.00000000
H       -0.44455079       0.72516567       0.00000000
3
Lattice="15.0 0.0 0.0 0.0 15.0 0.0 0.0 0.0 15.0" Properties=species:S:1:pos:R:3 energy=2.5174464177 pbc="T T T"
O        0.00134088       0.03085023       0.00000000
H        1.13568863      -0.25106712       0.00000000
H       -0.43566260       0.69040068       0.00000000
3
Lattice="15.0 0.0 0.0 0.0 15.0 0.0 0.0 0.0 15.0" Properties=species:S:1:pos:R:3 energy=3.5060894571 pbc="T T T"
O       -0.00148084       0.03304077       0.00000000
H        1.17158318      -0.25106756       0.00000000
H       -0.42677441       0.65563569       0.00000000
3
Lattice="15.0 0.0 0.0 0.0 15.0 0.0 0.0 0.0 15.0" Properties=species:S:1:pos:R:3 energy=4.7949637565 pbc="T T T"
O       -0.00430256       0.03523132       0.00000000
H        1.20747773      -0.25106800       0.00000000
H       -0.41788622       0.62087070       0.00000000
3
Lattice="15.0 0.0 0.0 0.0 15.0 0.0 0.0 0.0 15.0" Properties=species:S:1:pos:R:3 energy=3.565862559 pbc="T T T"
O        0.03017276       0.00391174       0.00000000
H        0.74122223      -0.21519586       0.00000000
H       -0.49877762       1.08206156       0.00000000
3
Lattice="15.0 0.0 0.0 0.0 15.0 0.0 0.0 0.0 15.0" Properties=species:S:1:pos:R:3 energy=2.5020031398 pbc="T T T"
O        0.02735103       0.00610228       0.00000000
H        0.77711678      -0.21519630       0.00000000
H       -0.48988943       1.04729657       0.00000000
3
Lattice="15.0 0.0 0.0 0.0 15.0 0.0 0.0 0.0 15.0" Properties=species:S:1:pos:R:3 energy=1.7053951317 pbc="T T T"
O        0.02452931       0.00829283       0.00000000
H        0.81301134      -0.21519674       0.00000000
H       -0.48100124       1.01253158       0.00000000
3
Lattice="15.0 0.0 0.0 0.0 15.0 0.0 0.0 0.0 15.0" Properties=species:S:1:pos:R:3 energy=1.1294004343 pbc="T T T"
O        0.02170759       0.01048337       0.00000000
H        0.84890589      -0.21519718       0.00000000
H       -0.47211305       0.97776659       0.00000000
3
Lattice="15.0 0.0 0.0 0.0 15.0 0.0 0.0 0.0 15.0" Properties=species:S:1:pos:R:3 energy=0.740388441 pbc="T T T"
O        0.01888587       0.01267392       0.00000000
H        0.88480044      -0.21519762       0.00000000
H       -0.46322486       0.94300159       0.00000000
3
Lattice="15.0 0.0 0.0 0.0 15.0 0.0 0.0 0.0 15.0" Properties=species:S:1:pos:R:3 energy=0.5156894606 pbc="T T T"
O        0.01606414       0.01486446       0.00000000
H        0.92069499      -0.21519806       0.00000000
H       -0.45433666       0.90823660       0.00000000
3
Lattice="15.0 0.0 0.0 0.0 15.0 0.0 0.0 0.0 15.0" Properties=species:S:1:pos:R:3 energy=0.4422224545 pbc="T T T"
O        0.01324242       0.01705501       0.00000000
H        0.95658955      -0.21519850       0.00000000
H       -0.44544847       0.87347161       0.00000000
3
Lattice="15.0 0.0 0.0 0.0 15.0 0.0 0.0 0.0 15.0" Properties=species:S:1:pos:R:3 energy=0.5157021111 pbc="T T T"
O        0.01042070       0.01924555       0.00000000
H        0.99248410      -0.21519894       0.00000000
H       -0.43656028       0.83870662       0.00000000
3
Lattice="15.0 0.0 0.0 0.0 15.0 0.0 0.0 0.0 15.0" Properties=species:S:1:pos:R:3 energy=0.7403786612 pbc="T T T"
O        0.00759898       0.02143610       0.00000000
H        1.02837865      -0.21519938       0.00000000
H       -0.42767209       0.80394163       0.00000000
3
Lattice="15.0 0.0 0.0 0.0 15.0 0.0 0.0 0.0 15.0" Properties=species:S:1:pos:R:3 energy=1.1292951752 pbc="T T T"
O        0.00477725       0.02362664       0.00000000
H        1.06427320      -0.21519982       0.00000000
H       -0.41878390       0.76917663       0.00000000
3
Lattice="15.0 0.0 0.0 0.0 15.0 0.0 0.0 0.0 15.0" Properties=species:S:1:pos:R:3 energy=1.7050766334 pbc="T T T"
O        0.00195553       0.02581718       0.00000000
H        1.10016776      -0.21520026       0.00000000
H       -0.40989571       0.73441164       0.00000000
3
Lattice="15.0 0.0 0.0 0.0 15.0 0.0 0.0 0.0 15.0" Properties=species:S:1:pos:R:3 energy=2.501298335 pbc="T T T"
O       -0.00086619       0.02800773       0.00000000
H        1.13606231      -0.21520070       0.00000000
H       -0.40100752       0.69964665       0.00000000
3
Lattice="15.0 0.0 0.0 0.0 15.0 0.0 0.0 0.0 15.0" Properties=species:S:1:pos:R:3 energy=3.5645275984 pbc="T T T"
O       -0.00368791       0.03019827       0.00000000
H        1.17195686      -0.21520114       0.00000000
H       -0.39211933       0.66488166       0.00000000
3
Lattice="15.0 0.0 0.0 0.0 15.0 0.0 0.0 0.0 15.0" Properties=species:S:1:pos:R:3 energy=4.957200331 pbc="T T T"
O       -0.00650963       0.03238882       0.00000000
H        1.20785142      -0.21520158       0.00000000
H       -0.38323113       0.63011667       0.00000000
3
Lattice="15.0 0.0 0.0 0.0 15.0 0.0 0.0 0.0 15.0" Properties=species:S:1:pos:R:3 energy=3.6122448535 pbc="T T T"
O        0.02796569       0.00106924       0.00000000
H        0.74159591      -0.17932944       0.00000000
H       -0.46412254       1.09130753       0.00000000
3
Lattice="15.0 0.0 0.0 0.0 15.0 0.0 0.0 0.0 15.0" Properties=species:S:1:pos:R:3 energy=2.4844155122 pbc="T T T"
O        0.02514396       0.00325978       0.00000000
H        0.77749046      -0.17932988       0.00000000
H       -0.45523435       1.05654254       0.00000000
3
Lattice="15.0 0.0 0.0 0.0 15.0 0.0 0.0 0.0 15.0" Properties=species:S:1:pos:R:3 energy=1.6427140061 pbc="T T T"
O        0.02232224       0.00545033       0.00000000
H        0.81338502      -0.17933032       0.00000000
H       -0.44634615       1.02177755       0.00000000
3
Lattice="15.0 0.0 0.0 0.0 15.0 0.0 0.0 0.0 15.0" Properties=species:S:1:pos:R:3 energy=1.0357146092 pbc="T T T"
O        0.01950052       0.00764087       0.00000000
H        0.84927957      -0.17933076       0.00000000
H       -0.43745796       0.98701255       0.00000000
3
Lattice="15.0 0.0 0.0 0.0 15.0 0.0 0.0 0.0 15.0" Properties=species:S:1:pos:R:3 energy=0.6265646692 pbc="T T T"
O        0.01667880       0.00983142       0.00000000
H        0.88517412      -0.17933120       0.00000000
H       -0.42856977       0.95224756       0.00000000
3
Lattice="15.0 0.0 0.0 0.0 15.0 0.0 0.0 0.0 15.0" Properties=species:S:1:pos:R:3 energy=0.3905389629 pbc="T T T"
O        0.01385707       0.01202196       0.00000000
H        0.92106867      -0.17933164       0.00000000
H       -0.41968158       0.91748257       0.00000000
3
Lattice="15.0 0.0 0.0 0.0 15.0 0.0 0.0 0.0 15.0" Properties=species:S:1:pos:R:3 energy=0.3134158786 pbc="T T T"
O        0.01103535       0.01421250       0.00000000
H        0.95696323      -0.17933208       0.00000000
H       -0.41079339       0.88271758       0.00000000
3
Lattice="15.0 0.0 0.0 0.0 15.0 0.0 0.0 0.0 15.0" Properties=species:S:1:pos:R:3 energy=0.3905443562 pbc="T T T"
O        0.00821363       0.01640305       0.00000000
H        0.99285778      -0.17933252       0.00000000
H       -0.40190520       0.84795259       0.00000000
3
Lattice="15.0 0.0 0.0 0.0 15.0 0.0 0.0 0.0 15.0" Properties=species:S:1:pos:R:3 energy=0.6265380973 pbc="T T T"
O        0.00539191       0.01859359       0.00000000
H        1.02875233      -0.17933296       0.00000000
H       -0.39301701       0.81318759       0.00000000
3
Lattice="15.0 0.0 0.0 0.0 15.0 0.0 0.0 0.0 15.0" Properties=species:S:1:pos:R:3 energy=1.0355781251 pbc="T T T"
O        0.00257018       0.02078414       0.00000000
H        1.06464689      -0.17933340       0.00000000
H       -0.38412882       0.77842260       0.00000000
3
Lattice="15.0 0.0 0.0 0.0 15.0 0.0 0.0 0.0 15.0" Properties=species:S:1:pos:R:3 energy=1.6423411367 pbc="T T T"
O       -0.00025154       0.02297468       0.00000000
H        1.10054144      -0.17933384       0.00000000
H       -0.37524062       0.74365761       0.00000000
3
Lattice="15.0 0.0 0.0 0.0 15.0 0.0 0.0 0.0 15.0" Properties=species:S:1:pos:R:3 energy=2.4836195982 pbc="T T T"
O       -0.00307326       0.02516523       0.00000000
H        1.13643599      -0.17933428       0.00000000
H       -0.36635243       0.70889262       0.00000000
3
Lattice="15.0 0.0 0.0 0.0 15.0 0.0 0.0 0.0 15.0" Properties=species:S:1:pos:R:3 energy=3.6107609813 pbc="T T T"
O       -0.00589498       0.02735577       0.00000000
H        1.17233054      -0.17933472       0.00000000
H       -0.35746424       0.67412763       0.00000000
3
Lattice="15.0 0.0 0.0 0.0 15.0 0.0 0.0 0.0 15.0" Properties=species:S:1:pos:R:3 energy=5.0931542414 pbc="T T T"
O       -0.00871671       0.02954632       0.00000000
H        1.20822510      -0.17933516       0.00000000
H       -0.34857605       0.63936263       0.00000000
3
Lattice="15.0 0.0 0.0 0.0 15.0 0.0 0.0 0.0 15.0" Properties=species:S:1:pos:R:3 energy=3.6393228929 pbc="T T T"
O        0.02575861      -0.00177326       0.00000000
H        0.74196959      -0.14346302       0.00000000
H       -0.42946745       1.10055350       0.00000000
3
Lattice="15.0 0.0 0.0 0.0 15.0 0.0 0.0 0.0 15.0" Properties=species:S:1:pos:R:3 energy=2.46142597 pbc="T T T"
O        0.02293689       0.00041728       0.00000000
H        0.77786414      -0.14346346       0.00000000
H       -0.42057926       1.06578851       0.00000000
3
Lattice="15.0 0.0 0.0 0.0 15.0 0.0 0.0 0.0 15.0" Properties=species:S:1:pos:R:3 energy=1.5847258378 pbc="T T T"
O        0.02011517       0.00260783       0.00000000
H        0.81375870      -0.14346390       0.00000000
H       -0.41169107       1.03102351       0.00000000
3
Lattice="15.0 0.0 0.0 0.0 15.0 0.0 0.0 0.0 15.0" Properties=species:S:1:pos:R:3 energy=0.9538429829 pbc="T T T"
O        0.01729345       0.00479837       0.00000000
H        0.84965325      -0.14346434       0.00000000
H       -0.40280288       0.99625852       0.00000000
3
Lattice="15.0 0.0 0.0 0.0 15.0 0.0 0.0 0.0 15.0" Properties=species:S:1:pos:R:3 energy=0.5292779723 pbc="T T T"
O        0.01447173       0.00698891       0.00000000
H        0.88554780      -0.14346478       0.00000000
H       -0.39391469       0.96149353       0.00000000
3
Lattice="15.0 0.0 0.0 0.0 15.0 0.0 0.0 0.0 15.0" Properties=species:S:1:pos:R:3 energy=0.2846219736 pbc="T T T"
O        0.01165000       0.00917946       0.00000000
H        0.92144236      -0.14346522       0.00000000
H       -0.38502650       0.92672854       0.00000000
3
Lattice="15.0 0.0 0.0 0.0 15.0 0.0 0.0 0.0 15.0" Properties=species:S:1:pos:R:3 energy=0.2047200598 pbc="T T T"
O        0.00882828       0.01137000       0.00000000
H        0.95733691      -0.14346567       0.00000000
H       -0.37613831       0.89196355       0.00000000
3
Lattice="15.0 0.0 0.0 0.0 15.0 0.0 0.0 0.0 15.0" Properties=species:S:1:pos:R:3 energy=0.2846216933 pbc="T T T"
O        0.00600656       0.01356055       0.00000000
H        0.99323146      -0.14346611       0.00000000
H       -0.36725011       0.85719855       0.00000000
3
Lattice="15.0 0.0 0.0 0.0 15.0 0.0 0.0 0.0 15.0" Properties=species:S:1:pos:R:3 energy=0.5292381566 pbc="T T T"
O        0.00318484       0.01575109       0.00000000
H        1.02912601      -0.14346655       0.00000000
H       -0.35836192       0.82243356       0.00000000
3
Lattice="15.0 0.0 0.0 0.0 15.0 0.0 0.0 0.0 15.0" Properties=species:S:1:pos:R:3 energy=0.9536818507 pbc="T T T"
O        0.00036311       0.01794164       0.00000000
H        1.06502057      -0.14346699       0.00000000
H       -0.34947373       0.78766857       0.00000000
3
Lattice="15.0 0.0 0.0 0.0 15.0 0.0 0.0 0.0 15.0" Properties=species:S:1:pos:R:3 energy=1.5843101213 pbc="T T T"
O       -0.00245861       0.02013218       0.00000000
H        1.10091512      -0.14346743       0.00000000
H       -0.34058554       0.75290358       0.00000000
3
Lattice="15.0 0.0 0.0 0.0 15.0 0.0 0.0 0.0 15.0" Properties=species:S:1:pos:R:3 energy=2.4605580737 pbc="T T T"
O       -0.00528033       0.02232273       0.00000000
H        1.13680967      -0.14346787       0.00000000
H       -0.33169735       0.71813859       0.00000000
3
Lattice="15.0 0.0 0.0 0.0 15.0 0.0 0.0 0.0 15.0" Properties=species:S:1:pos:R:3 energy=3.6377214103 pbc="T T T"
O       -0.00810205       0.02451327       0.00000000
H        1.17270422      -0.14346831       0.00000000
H       -0.32280916       0.68337359       0.00000000
3
Lattice="15.0 0.0 0.0 0.0 15.0 0.0 0.0 0.0 15.0" Properties=species:S:1:pos:R:3 energy=5.1909769237 pbc="T T T"
O       -0.01092378       0.02670382       0.00000000
H        1.20859878      -0.14346875       0.00000000
H       -0.31392097       0.64860860       0.00000000
3
Lattice="15.0 0.0 0.0 0.0 15.0 0.0 0.0 0.0 15.0" Properties=species:S:1:pos:R:3 energy=3.6416414444 pbc="T T T"
O        0.02355154      -0.00461576       0.00000000
H        0.74234327      -0.10759661       0.00000000
H       -0.39481237       1.10979947       0.00000000
3
Lattice="15.0 0.0 0.0 0.0 15.0 0.0 0.0 0.0 15.0" Properties=species:S:1:pos:R:3 energy=2.4302759209 pbc="T T T"
O        0.02072982      -0.00242522       0.00000000
H        0.77823783      -0.10759705       0.00000000
H       -0.38592418       1.07503448       0.00000000
3
Lattice="15.0 0.0 0.0 0.0 15.0 0.0 0.0 0.0 15.0" Properties=species:S:1:pos:R:3 energy=1.5304499964 pbc="T T T"
O        0.01790810      -0.00023468       0.00000000
H        0.81413238      -0.10759749       0.00000000
H       -0.37703599       1.04026948       0.00000000
3
Lattice="15.0 0.0 0.0 0.0 15.0 0.0 0.0 0.0 15.0" Properties=species:S:1:pos:R:3 energy=0.8839563476 pbc="T T T"
O        0.01508638       0.00195587       0.00000000
H        0.85002693      -0.10759793       0.00000000
H       -0.36814779       1.00550449       0.00000000
3
Lattice="15.0 0.0 0.0 0.0 15.0 0.0 0.0 0.0 15.0" Properties=species:S:1:pos:R:3 energy=0.4494106441 pbc="T T T"
O        0.01226466       0.00414641       0.00000000
H        0.88592148      -0.10759837       0.00000000
H       -0.35925960       0.97073950       0.00000000
3
Lattice="15.0 0.0 0.0 0.0 15.0 0.0 0.0 0.0 15.0" Properties=species:S:1:pos:R:3 energy=0.1992064044 pbc="T T T"
O        0.00944293       0.00633696       0.00000000
H        0.92181604      -0.10759881       0.00000000
H       -0.35037141       0.93597451       0.00000000
3
Lattice="15.0 0.0 0.0 0.0 15.0 0.0 0.0 0.0 15.0" Properties=species:S:1:pos:R:3 energy=0.1175247271 pbc="T T T"
O        0.00662121       0.00852750       0.00000000
H        0.95771059      -0.10759925       0.00000000
H       -0.34148322       0.90120952       0.00000000
3
Lattice="15.0 0.0 0.0 0.0 15.0 0.0 0.0 0.0 15.0" Properties=species:S:1:pos:R:3 energy=0.1992020696 pbc="T T T"
O        0.00379949       0.01071805       0.00000000
H        0.99360514      -0.10759969       0.00000000
H       -0.33259503       0.86644452       0.00000000
3
Lattice="15.0 0.0 0.0 0.0 15.0 0.0 0.0 0.0 15.0" Properties=species:S:1:pos:R:3 energy=0.4493615194 pbc="T T T"
O        0.00097777       0.01290859       0.00000000
H        1.02949969      -0.10760013       0.00000000
H       -0.32370684       0.83167953       0.00000000
3
Lattice="15.0 0.0 0.0 0.0 15.0 0.0 0.0 0.0 15.0" Properties=species:S:1:pos:R:3 energy=0.8837780259 pbc="T T T"
O       -0.00184396       0.01509914       0.00000000
H        1.06539425      -0.10760057       0.00000000
H       -0.31481865       0.79691454       0.00000000
3
Lattice="15.0 0.0 0.0 0.0 15.0 0.0 0.0 0.0 15.0" Properties=species:S:1:pos:R:3 energy=1.5300045242 pbc="T T T"
O       -0.00466568       0.01728968       0.00000000
H        1.10128880      -0.10760101       0.00000000
H       -0.30593046       0.76214955       0.00000000
3
Lattice="15.0 0.0 0.0 0.0 15.0 0.0 0.0 0.0 15.0" Properties=species:S:1:pos:R:3 energy=2.4293588428 pbc="T T T"
O       -0.00748740       0.01948023       0.00000000
H        1.13718335      -0.10760145       0.00000000
H       -0.29704226       0.72738455       0.00000000
3
Lattice="15.0 0.0 0.0 0.0 15.0 0.0 0.0 0.0 15.0" Properties=species:S:1:pos:R:3 energy=3.6399585808 pbc="T T T"
O       -0.01030912       0.02167077       0.00000000
H        1.17307790      -0.10760189       0.00000000
H       -0.28815407       0.69261956       0.00000000
3
Lattice="15.0 0.0 0.0 0.0 15.0 0.0 0.0 0.0 15.0" Properties=species:S:1:pos:R:3 energy=5.2411439411 pbc="T T T"
O       -0.01313085       0.02386131       0.00000000
H        1.20897246      -0.10760233       0.00000000
H       -0.27926588       0.65785457       0.00000000
3
Lattice="15.0 0.0 0.0 0.0 15.0 0.0 0.0 0.0 15.0" Properties=species:S:1:pos:R:3 energy=3.6159560893 pbc="T T T"
O        0.02134447      -0.00745827       0.00000000
H        0.74271695      -0.07173019       0.00000000
H       -0.36015728       1.11904544       0.00000000
3
Lattice="15.0 0.0 0.0 0.0 15.0 0.0 0.0 0.0 15.0" Properties=species:S:1:pos:R:3 energy=2.3896192829 pbc="T T T"
O        0.01852275      -0.00526772       0.00000000
H        0.77861151      -0.07173063       0.00000000
H       -0.35126909       1.08428044       0.00000000
3
Lattice="15.0 0.0 0.0 0.0 15.0 0.0 0.0 0.0 15.0" Properties=species:S:1:pos:R:3 energy=1.4797694186 pbc="T T T"
O        0.01570103      -0.00307718       0.00000000
H        0.81450606      -0.07173107       0.00000000
H       -0.34238090       1.04951545       0.00000000
3
Lattice="15.0 0.0 0.0 0.0 15.0 0.0 0.0 0.0 15.0" Properties=species:S:1:pos:R:3 energy=0.826720536 pbc="T T T"
O        0.01287931      -0.00088663       0.00000000
H        0.85040061      -0.07173151       0.00000000
H       -0.33349271       1.01475046       0.00000000
3
Lattice="15.0 0.0 0.0 0.0 15.0 0.0 0.0 0.0 15.0" Properties=species:S:1:pos:R:3 energy=0.3881037806 pbc="T T T"
O        0.01005759       0.00130391       0.00000000
H        0.88629516      -0.07173195       0.00000000
H       -0.32460452       0.97998547       0.00000000
3
Lattice="15.0 0.0 0.0 0.0 15.0 0.0 0.0 0.0 15.0" Properties=species:S:1:pos:R:3 energy=0.1356870538 pbc="T T T"
O        0.00723586       0.00349446       0.00000000
H        0.92218972      -0.07173239       0.00000000
H       -0.31571633       0.94522048       0.00000000
3
Lattice="15.0 0.0 0.0 0.0 15.0 0.0 0.0 0.0 15.0" Properties=species:S:1:pos:R:3 energy=0.053304248 pbc="T T T"
O        0.00441414       0.00568500       0.00000000
H        0.95808427      -0.07173283       0.00000000
H       -0.30682814       0.91045548       0.00000000
3
Lattice="15.0 0.0 0.0 0.0 15.0 0.0 0.0 0.0 15.0" Properties=species:S:1:pos:R:3 energy=0.135680368 pbc="T T T"
O        0.00159242       0.00787555       0.00000000
H        0.99397882      -0.07173327       0.00000000
H       -0.29793995       0.87569049       0.00000000
3
Lattice="15.0 0.0 0.0 0.0 15.0 0.0 0.0 0.0 15.0" Properties=species:S:1:pos:R:3 energy=0.3880494313 pbc="T T T"
O       -0.00122930       0.01006609       0.00000000
H        1.02987337      -0.07173371       0.00000000
H       -0.28905175       0.84092550       0.00000000
3
Lattice="15.0 0.0 0.0 0.0 15.0 0.0 0.0 0.0 15.0" Properties=species:S:1:pos:R:3 energy=0.8265329189 pbc="T T T"
O       -0.00405103       0.01225664       0.00000000
H        1.06576793      -0.07173415       0.00000000
H       -0.28016356       0.80616051       0.00000000
3
Lattice="15.0 0.0 0.0 0.0 15.0 0.0 0.0 0.0 15.0" Properties=species:S:1:pos:R:3 energy=1.4793084876 pbc="T T T"
O       -0.00687275       0.01444718       0.00000000