3
Lattice="15.0 0.0 0.0 0.0 15.0 0.0 0.0 0.0 15.0" Properties=species:S:1:pos:R:3 energy=15.5878794739 pbc="T T T"
O        0.02483137      -0.00296353       0.00000000
H        0.56110192       0.01216285       0.00000000
H       -0.23387968       0.96381634       0.00000000
3
Lattice="15.0 0.0 0.0 0.0 15.0 0.0 0.0 0.0 15.0" Properties=species:S:1:pos:R:3 energy=11.2342739655 pbc="T T T"
O        0.02200964      -0.00077298       0.00000000
H        0.59699648       0.01216241       0.00000000
H       -0.22499149       0.92905134       0.00000000
3
Lattice="15.0 0.0 0.0 0.0 15.0 0.0 0.0 0.0 15.0" Properties=species:S:1:pos:R:3 energy=8.035190843 pbc="T T T"
O        0.01918792       0.00141756       0.00000000
H        0.63289103       0.01216197       0.00000000
H       -0.21610330       0.89428635       0.00000000
3
Lattice="15.0 0.0 0.0 0.0 15.0 0.0 0.0 0.0 15.0" Properties=species:S:1:pos:R:3 energy=5.7547903408 pbc="T T T"
O        0.01636620       0.00360811       0.00000000
H        0.66878558       0.01216153       0.00000000
H       -0.20721511       0.85952136       0.00000000
3
Lattice="15.0 0.0 0.0 0.0 15.0 0.0 0.0 0.0 15.0" Properties=species:S:1:pos:R:3 energy=4.2302191004 pbc="T T T"
O        0.01354448       0.00579865       0.00000000
H        0.70468013       0.01216109       0.00000000
H       -0.19832692       0.82475637       0.00000000
3
Lattice="15.0 0.0 0.0 0.0 15.0 0.0 0.0 0.0 15.0" Properties=species:S:1:pos:R:3 energy=3.3553310479 pbc="T T T"
O        0.01072275       0.00798920       0.00000000
H        0.74057469       0.01216065       0.00000000
H       -0.18943873       0.78999137       0.00000000
3
Lattice="15.0 0.0 0.0 0.0 15.0 0.0 0.0 0.0 15.0" Properties=species:S:1:pos:R:3 energy=3.0702819045 pbc="T T T"
O        0.00790103       0.01017974       0.00000000
H        0.77646924       0.01216020       0.00000000
H       -0.18055054       0.75522638       0.00000000
3
Lattice="15.0 0.0 0.0 0.0 15.0 0.0 0.0 0.0 15.0" Properties=species:S:1:pos:R:3 energy=3.35572007 pbc="T T T"
O        0.00507931       0.01237028       0.00000000
H        0.81236379       0.01215976       0.00000000
H       -0.17166234       0.72046139       0.00000000
3
Lattice="15.0 0.0 0.0 0.0 15.0 0.0 0.0 0.0 15.0" Properties=species:S:1:pos:R:3 energy=4.2309205229 pbc="T T T"
O        0.00225759       0.01456083       0.00000000
H        0.84825834       0.01215932       0.00000000
H       -0.16277415       0.68569640       0.00000000
3
Lattice="15.0 0.0 0.0 0.0 15.0 0.0 0.0 0.0 15.0" Properties=species:S:1:pos:R:3 energy=5.7556397633 pbc="T T T"
O       -0.00056414       0.01675137       0.00000000
H        0.88415290       0.01215888       0.00000000
H       -0.15388596       0.65093141       0.00000000
3
Lattice="15.0 0.0 0.0 0.0 15.0 0.0 0.0 0.0 15.0" Properties=species:S:1:pos:R:3 energy=8.0359114685 pbc="T T T"
O       -0.00338586       0.01894192       0.00000000
H        0.92004745       0.01215844       0.00000000
H       -0.14499777       0.61616641       0.00000000
3
Lattice="15.0 0.0 0.0 0.0 15.0 0.0 0.0 0.0 15.0" Properties=species:S:1:pos:R:3 energy=11.2344283085 pbc="T T T"
O       -0.00620758       0.02113246       0.00000000
H        0.95594200       0.01215800       0.00000000
H       -0.13610958       0.58140142       0.00000000
3
Lattice="15.0 0.0 0.0 0.0 15.0 0.0 0.0 0.0 15.0" Properties=species:S:1:pos:R:3 energy=15.5868002948 pbc="T T T"
O       -0.00902930       0.02332301       0.00000000
H        0.99183656       0.01215756       0.00000000
H       -0.12722139       0.54663643       0.00000000
3
Lattice="15.0 0.0 0.0 0.0 15.0 0.0 0.0 0.0 15.0" Properties=species:S:1:pos:R:3 energy=21.4259811383 pbc="T T T"
O       -0.01185102       0.02551355       0.00000000
H        1.02773111       0.01215712       0.00000000
H       -0.11833320       0.51187144       0.00000000
3
Lattice="15.0 0.0 0.0 0.0 15.0 0.0 0.0 0.0 15.0" Properties=species:S:1:pos:R:3 energy=11.4516812034 pbc="T T T"
O        0.02325116      -0.00499948       0.00000000
H        0.59757440       0.00973081       0.00000000
H       -0.24527317       0.99856054       0.00000000
3
Lattice="15.0 0.0 0.0 0.0 15.0 0.0 0.0 0.0 15.0" Properties=species:S:1:pos:R:3 energy=8.0989993635 pbc="T T T"
O        0.02042944      -0.00280893       0.00000000
H        0.63346895       0.00973037       0.00000000
H       -0.23638498       0.96379555       0.00000000
3
Lattice="15.0 0.0 0.0 0.0 15.0 0.0 0.0 0.0 15.0" Properties=species:S:1:pos:R:3 energy=5.6267133321 pbc="T T T"
O        0.01760771      -0.00061839       0.00000000
H        0.66936351       0.00972992       0.00000000
H       -0.22749679       0.92903056       0.00000000
3
Lattice="15.0 0.0 0.0 0.0 15.0 0.0 0.0 0.0 15.0" Properties=species:S:1:pos:R:3 energy=3.8595930134 pbc="T T T"
O        0.01478599       0.00157216       0.00000000
H        0.70525806       0.00972948       0.00000000
H       -0.21860860       0.89426557       0.00000000
3
Lattice="15.0 0.0 0.0 0.0 15.0 0.0 0.0 0.0 15.0" Properties=species:S:1:pos:R:3 energy=2.6758409704 pbc="T T T"
O        0.01196427       0.00376270       0.00000000
H        0.74115261       0.00972904       0.00000000
H       -0.20972040       0.85950057       0.00000000
3
Lattice="15.0 0.0 0.0 0.0 15.0 0.0 0.0 0.0 15.0" Properties=species:S:1:pos:R:3 energy=1.9956538814 pbc="T T T"
O        0.00914255       0.00595325       0.00000000
H        0.77704716       0.00972860       0.00000000
H       -0.20083221       0.82473558       0.00000000
3
Lattice="15.0 0.0 0.0 0.0 15.0 0.0 0.0 0.0 15.0" Properties=species:S:1:pos:R:3 energy=1.7738713438 pbc="T T T"
O        0.00632083       0.00814379       0.00000000
H        0.81294172       0.00972816       0.00000000
H       -0.19194402       0.78997059       0.00000000
3
Lattice="15.0 0.0 0.0 0.0 15.0 0.0 0.0 0.0 15.0" Properties=species:S:1:pos:R:3 energy=1.9958603994 pbc="T T T"
O        0.00349910       0.01033434       0.00000000
H        0.84883627       0.00972772       0.00000000
H       -0.18305583       0.75520560       0.00000000
3
Lattice="15.0 0.0 0.0 0.0 15.0 0.0 0.0 0.0 15.0" Properties=species:S:1:pos:R:3 energy=2.6761848189 pbc="T T T"
O        0.00067738       0.01252488       0.00000000
H        0.88473082       0.00972728       0.00000000
H       -0.17416764       0.72044061       0.00000000
3
Lattice="15.0 0.0 0.0 0.0 15.0 0.0 0.0 0.0 15.0" Properties=species:S:1:pos:R:3 energy=3.8599267203 pbc="T T T"
O       -0.00214434       0.01471543       0.00000000
H        0.92062538       0.00972684       0.00000000
H       -0.16527945       0.68567561       0.00000000
3
Lattice="15.0 0.0 0.0 0.0 15.0 0.0 0.0 0.0 15.0" Properties=species:S:1:pos:R:3 energy=5.6267887049 pbc="T T T"
O       -0.00496606       0.01690597       0.00000000
H        0.95651993       0.00972640       0.00000000
H       -0.15639126       0.65091062       0.00000000
3
Lattice="15.0 0.0 0.0 0.0 15.0 0.0 0.0 0.0 15.0" Properties=species:S:1:pos:R:3 energy=8.0984332605 pbc="T T T"
O       -0.00778779       0.01909652       0.00000000
H        0.99241448       0.00972596       0.00000000
H       -0.14750307       0.61614563       0.00000000
3
Lattice="15.0 0.0 0.0 0.0 15.0 0.0 0.0 0.0 15.0" Properties=species:S:1:pos:R:3 energy=11.4499005256 pbc="T T T"
O       -0.01060951       0.02128706       0.00000000
H        1.02830903       0.00972552       0.00000000
H       -0.13861487       0.58138064       0.00000000
3
Lattice="15.0 0.0 0.0 0.0 15.0 0.0 0.0 0.0 15.0" Properties=species:S:1:pos:R:3 energy=15.9266133865 pbc="T T T"
O       -0.01343123       0.02347760       0.00000000
H        1.06420359       0.00972508       0.00000000
H       -0.12972668       0.54661565       0.00000000
3
Lattice="15.0 0.0 0.0 0.0 15.0 0.0 0.0 0.0 15.0" Properties=species:S:1:pos:R:3 energy=8.4016938253 pbc="T T T"
O        0.02167095      -0.00703542       0.00000000
H        0.63404688       0.00729876       0.00000000
H       -0.25666666       1.03330475       0.00000000
3
Lattice="15.0 0.0 0.0 0.0 15.0 0.0 0.0 0.0 15.0" Properties=species:S:1:pos:R:3 energy=5.8119864864 pbc="T T T"
O        0.01884923      -0.00484488       0.00000000
H        0.66994143       0.00729832       0.00000000
H       -0.24777846       0.99853976       0.00000000
3
Lattice="15.0 0.0 0.0 0.0 15.0 0.0 0.0 0.0 15.0" Properties=species:S:1:pos:R:3 energy=3.8970650757 pbc="T T T"
O        0.01602751      -0.00265433       0.00000000
H        0.70583599       0.00729788       0.00000000
H       -0.23889027       0.96377477       0.00000000
3
Lattice="15.0 0.0 0.0 0.0 15.0 0.0 0.0 0.0 15.0" Properties=species:S:1:pos:R:3 energy=2.52553556 pbc="T T T"
O        0.01320579      -0.00046379       0.00000000
H        0.74173054       0.00729744       0.00000000
H       -0.23000208       0.92900977       0.00000000
3
Lattice="15.0 0.0 0.0 0.0 15.0 0.0 0.0 0.0 15.0" Properties=species:S:1:pos:R:3 energy=1.6054776081 pbc="T T T"
O        0.01038406       0.00172676       0.00000000
H        0.77762509       0.00729700       0.00000000
H       -0.22111389       0.89424478       0.00000000
3
Lattice="15.0 0.0 0.0 0.0 15.0 0.0 0.0 0.0 15.0" Properties=species:S:1:pos:R:3 energy=1.0763370941 pbc="T T T"
O        0.00756234       0.00391730       0.00000000
H        0.81351964       0.00729656       0.00000000
H       -0.21222570       0.85947979       0.00000000
3
Lattice="15.0 0.0 0.0 0.0 15.0 0.0 0.0 0.0 15.0" Properties=species:S:1:pos:R:3 energy=0.9037126546 pbc="T T T"
O        0.00474062       0.00610784       0.00000000
H        0.84941420       0.00729612       0.00000000
H       -0.20333751       0.82471480       0.00000000
3
Lattice="15.0 0.0 0.0 0.0 15.0 0.0 0.0 0.0 15.0" Properties=species:S:1:pos:R:3 energy=1.0764328456 pbc="T T T"
O        0.00191890       0.00829839       0.00000000
H        0.88530875       0.00729568       0.00000000
H       -0.19444932       0.78994981       0.00000000
3
Lattice="15.0 0.0 0.0 0.0 15.0 0.0 0.0 0.0 15.0" Properties=species:S:1:pos:R:3 energy=1.6056078745 pbc="T T T"
O       -0.00090283       0.01048893       0.00000000
H        0.92120330       0.00729524       0.00000000
H       -0.18556113       0.75518481       0.00000000
3
Lattice="15.0 0.0 0.0 0.0 15.0 0.0 0.0 0.0 15.0" Properties=species:S:1:pos:R:3 energy=2.5255696232 pbc="T T T"
O       -0.00372455       0.01267948       0.00000000
H        0.95709785       0.00729480       0.00000000
H       -0.17667293       0.72041982       0.00000000
3
Lattice="15.0 0.0 0.0 0.0 15.0 0.0 0.0 0.0 15.0" Properties=species:S:1:pos:R:3 energy=3.8967864284 pbc="T T T"
O       -0.00654627       0.01487002       0.00000000
H        0.99299241       0.00729436       0.00000000
H       -0.16778474       0.68565483       0.00000000
3
Lattice="15.0 0.0 0.0 0.0 15.0 0.0 0.0 0.0 15.0" Properties=species:S:1:pos:R:3 energy=5.8110646381 pbc="T T T"
O       -0.00936799       0.01706057       0.00000000
H        1.02888696       0.00729392       0.00000000
H       -0.15889655       0.65088984       0.00000000
3
Lattice="15.0 0.0 0.0 0.0 15.0 0.0 0.0 0.0 15.0" Properties=species:S:1:pos:R:3 energy=8.3996402147 pbc="T T T"
O       -0.01218971       0.01925111       0.00000000
H        1.06478151       0.00729348       0.00000000
H       -0.15000836       0.61612485       0.00000000
3
Lattice="15.0 0.0 0.0 0.0 15.0 0.0 0.0 0.0 15.0" Properties=species:S:1:pos:R:3 energy=11.8451858618 pbc="T T T"
O       -0.01501144       0.02144166       0.00000000
H        1.10067606       0.00729304       0.00000000
H       -0.14112017       0.58135985       0.00000000
3
Lattice="15.0 0.0 0.0 0.0 15.0 0.0 0.0 0.0 15.0" Properties=species:S:1:pos:R:3 energy=6.1784072605 pbc="T T T"
O        0.02009075      -0.00907137       0.00000000
H        0.67051936       0.00486672       0.00000000
H       -0.26806014       1.06804896       0.00000000
3
Lattice="15.0 0.0 0.0 0.0 15.0 0.0 0.0 0.0 15.0" Properties=species:S:1:pos:R:3 energy=4.1746574993 pbc="T T T"
O        0.01726902      -0.00688083       0.00000000
H        0.70641391       0.00486628       0.00000000
H       -0.25917195       1.03328397       0.00000000
3
Lattice="15.0 0.0 0.0 0.0 15.0 0.0 0.0 0.0 15.0" Properties=species:S:1:pos:R:3 energy=2.6901131791 pbc="T T T"
O        0.01444730      -0.00469028       0.00000000
H        0.74230846       0.00486584       0.00000000
H       -0.25028376       0.99851897       0.00000000
3
Lattice="15.0 0.0 0.0 0.0 15.0 0.0 0.0 0.0 15.0" Properties=species:S:1:pos:R:3 energy=1.6253826717 pbc="T T T"
O        0.01162558      -0.00249974       0.00000000
H        0.77820302       0.00486540       0.00000000
H       -0.24139557       0.96375398       0.00000000
3
Lattice="15.0 0.0 0.0 0.0 15.0 0.0 0.0 0.0 15.0" Properties=species:S:1:pos:R:3 energy=0.910503286 pbc="T T T"
O        0.00880386      -0.00030919       0.00000000
H        0.81409757       0.00486496       0.00000000
H       -0.23250738       0.92898899       0.00000000
3
Lattice="15.0 0.0 0.0 0.0 15.0 0.0 0.0 0.0 15.0" Properties=species:S:1:pos:R:3 energy=0.4991495393 pbc="T T T"
O        0.00598214       0.00188135       0.00000000
H        0.84999212       0.00486452       0.00000000
H       -0.22361919       0.89422400       0.00000000
3
Lattice="15.0 0.0 0.0 0.0 15.0 0.0 0.0 0.0 15.0" Properties=species:S:1:pos:R:3 energy=0.3649079598 pbc="T T T"
O        0.00316041       0.00407190       0.00000000
H        0.88588667       0.00486408       0.00000000
H       -0.21473100       0.85945901       0.00000000
3
Lattice="15.0 0.0 0.0 0.0 15.0 0.0 0.0 0.0 15.0" Properties=species:S:1:pos:R:3 energy=0.4991827535 pbc="T T T"
O        0.00033869       0.00626244       0.00000000
H        0.92178123       0.00486364       0.00000000
H       -0.20584280       0.82469401       0.00000000
3
Lattice="15.0 0.0 0.0 0.0 15.0 0.0 0.0 0.0 15.0" Properties=species:S:1:pos:R:3 energy=0.9105161297 pbc="T T T"
O       -0.00248303       0.00845299       0.00000000
H        0.95767578       0.00486320       0.00000000
H       -0.19695461       0.78992902       0.00000000
3
Lattice="15.0 0.0 0.0 0.0 15.0 0.0 0.0 0.0 15.0" Properties=species:S:1:pos:R:3 energy=1.6252614205 pbc="T T T"
O       -0.00530475       0.01064353       0.00000000
H        0.99357033       0.00486276       0.00000000
H       -0.18806642       0.75516403       0.00000000
3
Lattice="15.0 0.0 0.0 0.0 15.0 0.0 0.0 0.0 15.0" Properties=species:S:1:pos:R:3 energy=2.6896707301 pbc="T T T"
O       -0.00812648       0.01283407       0.00000000
H        1.02946488       0.00486232       0.00000000
H       -0.17917823       0.72039904       0.00000000
3
Lattice="15.0 0.0 0.0 0.0 15.0 0.0 0.0 0.0 15.0" Properties=species:S:1:pos:R:3 energy=4.1736116813 pbc="T T T"
O       -0.01094820       0.01502462       0.00000000
H        1.06535944       0.00486188       0.00000000
H       -0.17029004       0.68563405       0.00000000
3
Lattice="15.0 0.0 0.0 0.0 15.0 0.0 0.0 0.0 15.0" Properties=species:S:1:pos:R:3 energy=6.176344749 pbc="T T T"
O       -0.01376992       0.01721516       0.00000000
H        1.10125399       0.00486144       0.00000000
H       -0.16140185       0.65086905       0.00000000
3
Lattice="15.0 0.0 0.0 0.0 15.0 0.0 0.0 0.0 15.0" Properties=species:S:1:pos:R:3 energy=8.8350690555 pbc="T T T"
O       -0.01659164       0.01940571       0.00000000
H        1.13714854       0.00486100       0.00000000
H       -0.15251366       0.61610406       0.00000000
3
Lattice="15.0 0.0 0.0 0.0 15.0 0.0 0.0 0.0 15.0" Properties=species:S:1:pos:R:3 energy=4.5872226914 pbc="T T T"
O        0.01851054      -0.01110732       0.00000000
H        0.70699184       0.00243468       0.00000000
H       -0.27945363       1.10279317       0.00000000
3
Lattice="15.0 0.0 0.0 0.0 15.0 0.0 0.0 0.0 15.0" Properties=species:S:1:pos:R:3 energy=3.0365335055 pbc="T T T"
O        0.01568882      -0.00891677       0.00000000
H        0.74288639       0.00243424       0.00000000
H       -0.27056544       1.06802817       0.00000000
3
Lattice="15.0 0.0 0.0 0.0 15.0 0.0 0.0 0.0 15.0" Properties=species:S:1:pos:R:3 energy=1.8863450254 pbc="T T T"
O        0.01286710      -0.00672623       0.00000000
H        0.77878094       0.00243380       0.00000000
H       -0.26167725       1.03326318       0.00000000
3
Lattice="15.0 0.0 0.0 0.0 15.0 0.0 0.0 0.0 15.0" Properties=species:S:1:pos:R:3 energy=1.0608507678 pbc="T T T"
O        0.01004537      -0.00453569       0.00000000
H        0.81467549       0.00243336       0.00000000
H       -0.25278906       0.99849819       0.00000000
3
Lattice="15.0 0.0 0.0 0.0 15.0 0.0 0.0 0.0 15.0" Properties=species:S:1:pos:R:3 energy=0.5063941763 pbc="T T T"
O        0.00722365      -0.00234514       0.00000000
H        0.85057005       0.00243292       0.00000000
H       -0.24390086       0.96373320       0.00000000
3
Lattice="15.0 0.0 0.0 0.0 15.0 0.0 0.0 0.0 15.0" Properties=species:S:1:pos:R:3 energy=0.187294397 pbc="T T T"
O        0.00440193      -0.00015460       0.00000000
H        0.88646460       0.00243248       0.00000000
H       -0.23501267       0.92896821       0.00000000
3
Lattice="15.0 0.0 0.0 0.0 15.0 0.0 0.0 0.0 15.0" Properties=species:S:1:pos:R:3 energy=0.0831461614 pbc="T T T"
O        0.00158021       0.00203595       0.00000000
H        0.92235915       0.00243204       0.00000000
H       -0.22612448       0.89420321       0.00000000
3
Lattice="15.0 0.0 0.0 0.0 15.0 0.0 0.0 0.0 15.0" Properties=species:S:1:pos:R:3 energy=0.1872971998 pbc="T T T"
O       -0.00124152       0.00422649       0.00000000
H        0.95825371       0.00243160       0.00000000
H       -0.21723629       0.85943822       0.00000000
3
Lattice="15.0 0.0 0.0 0.0 15.0 0.0 0.0 0.0 15.0" Properties=species:S:1:pos:R:3 energy=0.506353449 pbc="T T T"
O       -0.00406324       0.00641704       0.00000000
H        0.99414826       0.00243116       0.00000000
H       -0.20834810       0.82467323       0.00000000
3
Lattice="15.0 0.0 0.0 0.0 15.0 0.0 0.0 0.0 15.0" Properties=species:S:1:pos:R:3 energy=1.060668389 pbc="T T T"
O       -0.00688496       0.00860758       0.00000000
H        1.03004281       0.00243072       0.00000000
H       -0.19945991       0.78990824       0.00000000
3
Lattice="15.0 0.0 0.0 0.0 15.0 0.0 0.0 0.0 15.0" Properties=species:S:1:pos:R:3 energy=1.8858611662 pbc="T T T"
O       -0.00970668       0.01079813       0.00000000
H        1.06593736       0.00243028       0.00000000
H       -0.19057172       0.75514324       0.00000000
3
Lattice="15.0 0.0 0.0 0.0 15.0 0.0 0.0 0.0 15.0" Properties=species:S:1:pos:R:3 energy=3.0355080172 pbc="T T T"
O       -0.01252841       0.01298867       0.00000000
H        1.10183192       0.00242984       0.00000000
H       -0.18168353       0.72037825       0.00000000
3
Lattice="15.0 0.0 0.0 0.0 15.0 0.0 0.0 0.0 15.0" Properties=species:S:1:pos:R:3 energy=4.5853082588 pbc="T T T"
O       -0.01535013       0.01517922       0.00000000
H        1.13772647       0.00242940       0.00000000
H       -0.17279533       0.68561326       0.00000000
3
Lattice="15.0 0.0 0.0 0.0 15.0 0.0 0.0 0.0 15.0" Properties=species:S:1:pos:R:3 energy=6.6392084302 pbc="T T T"
O       -0.01817185       0.01736976       0.00000000
H        1.17362102       0.00242896       0.00000000
H       -0.16390714       0.65084827       0.00000000
3
Lattice="15.0 0.0 0.0 0.0 15.0 0.0 0.0 0.0 15.0" Properties=species:S:1:pos:R:3 energy=3.4809440738 pbc="T T T"
O        0.01693033      -0.01314327       0.00000000
H        0.74346431       0.00000264       0.00000000
H       -0.29084712       1.13753737       0.00000000
3
Lattice="15.0 0.0 0.0 0.0 15.0 0.0 0.0 0.0 15.0" Properties=species:S:1:pos:R:3 energy=2.2826526824 pbc="T T T"
O        0.01410861      -0.01095272       0.00000000
H        0.77935887       0.00000220       0.00000000
H       -0.28195893       1.10277238       0.00000000
3
Lattice="15.0 0.0 0.0 0.0 15.0 0.0 0.0 0.0 15.0" Properties=species:S:1:pos:R:3 energy=1.3935989103 pbc="T T T"
O        0.01128689      -0.00876218       0.00000000
H        0.81525342       0.00000176       0.00000000
H       -0.27307073       1.06800739       0.00000000
3
Lattice="15.0 0.0 0.0 0.0 15.0 0.0 0.0 0.0 15.0" Properties=species:S:1:pos:R:3 energy=0.7555317624 pbc="T T T"
O        0.00846517      -0.00657163       0.00000000
H        0.85114797       0.00000132       0.00000000
H       -0.26418254       1.03324240       0.00000000
3
Lattice="15.0 0.0 0.0 0.0 15.0 0.0 0.0 0.0 15.0" Properties=species:S:1:pos:R:3 energy=0.3270322928 pbc="T T T"
O        0.00564344      -0.00438109       0.00000000
H        0.88704253       0.00000088       0.00000000
H       -0.25529435       0.99847740       0.00000000
3
Lattice="15.0 0.0 0.0 0.0 15.0 0.0 0.0 0.0 15.0" Properties=species:S:1:pos:R:3 energy=0.0804673392 pbc="T T T"
O        0.00282172      -0.00219054       0.00000000
H        0.92293708       0.00000044       0.00000000
H       -0.24640616       0.96371241       0.00000000
3
Lattice="15.0 0.0 0.0 0.0 15.0 0.0 0.0 0.0 15.0" Properties=species:S:1:pos:R:3 energy=0.0 pbc="T T T"
O        0.00000000       0.00000000       0.00000000
H        0.95883163       0.00000000       0.00000000
H       -0.23751797       0.92894742       0.00000000
3
Lattice="15.0 0.0 0.0 0.0 15.0 0.0 0.0 0.0 15.0" Properties=species:S:1:pos:R:3 energy=0.0804608058 pbc="T T T"
O       -0.00282172       0.00219054       0.00000000
H        0.99472618      -0.00000044       0.00000000
H       -0.22862978       0.89418243       0.00000000
3
Lattice="15.0 0.0 0.0 0.0 15.0 0.0 0.0 0.0 15.0" Properties=species:S:1:pos:R:3 energy=0.3269794429 pbc="T T T"
O       -0.00564344       0.00438109       0.00000000
H        1.03062074      -0.00000088       0.00000000
H       -0.21974159       0.85941744       0.00000000
3
Lattice="15.0 0.0 0.0 0.0 15.0 0.0 0.0 0.0 15.0" Properties=species:S:1:pos:R:3 energy=0.7553487223 pbc="T T T"
O       -0.00846517       0.00657163       0.00000000
H        1.06651529      -0.00000132       0.00000000
H       -0.21085340       0.82465244       0.00000000
3
Lattice="15.0 0.0 0.0 0.0 15.0 0.0 0.0 0.0 15.0" Properties=species:S:1:pos:R:3 energy=1.3931494843 pbc="T T T"
O       -0.01128689       0.00876218       0.00000000
H        1.10240984      -0.00000176       0.00000000
H       -0.20196520       0.78988745       0.00000000
3
Lattice="15.0 0.0 0.0 0.0 15.0 0.0 0.0 0.0 15.0" Properties=species:S:1:pos:R:3 energy=2.2817335879 pbc="T T T"
O       -0.01410861       0.01095272       0.00000000
H        1.13830439      -0.00000220       0.00000000
H       -0.19307701       0.75512246       0.00000000
3
Lattice="15.0 0.0 0.0 0.0 15.0 0.0 0.0 0.0 15.0" Properties=species:S:1:pos:R:3 energy=3.4792637299 pbc="T T T"
O       -0.01693033       0.01314327       0.00000000
H        1.17419895      -0.00000264       0.00000000
H       -0.18418882       0.72035747       0.00000000
3
Lattice="15.0 0.0 0.0 0.0 15.0 0.0 0.0 0.0 15.0" Properties=species:S:1:pos:R:3 energy=5.0651430665 pbc="T T T"
O       -0.01975206       0.01533381       0.00000000
H        1.21009350      -0.00000308       0.00000000
H       -0.17530063       0.68559248       0.00000000
3
Lattice="15.0 0.0 0.0 0.0 15.0 0.0 0.0 0.0 15.0" Properties=species:S:1:pos:R:3 energy=2.7473335591 pbc="T T T"
O        0.01535013      -0.01517922       0.00000000
H        0.77993679      -0.00242940       0.00000000
H       -0.30224060       1.17228158       0.00000000
3
Lattice="15.0 0.0 0.0 0.0 15.0 0.0 0.0 0.0 15.0" Properties=species:S:1:pos:R:3 energy=1.8245521965 pbc="T T T"
O        0.01252841      -0.01298867       0.00000000
H        0.81583135      -0.00242984       0.00000000
H       -0.29335241       1.13751659       0.00000000
3
Lattice="15.0 0.0 0.0 0.0 15.0 0.0 0.0 0.0 15.0" Properties=species:S:1:pos:R:3 energy=1.1403690202 pbc="T T T"
O        0.00970668      -0.01079813       0.00000000
H        0.85172590      -0.00243028       0.00000000
H       -0.28446422       1.10275160       0.00000000
3
Lattice="15.0 0.0 0.0 0.0 15.0 0.0 0.0 0.0 15.0" Properties=species:S:1:pos:R:3 energy=0.6497336188 pbc="T T T"
O        0.00688496      -0.00860758       0.00000000
H        0.88762045      -0.00243072       0.00000000
H       -0.27557603       1.06798660       0.00000000
3
Lattice="15.0 0.0 0.0 0.0 15.0 0.0 0.0 0.0 15.0" Properties=species:S:1:pos:R:3 energy=0.3204993534 pbc="T T T"
O        0.00406324      -0.00641704       0.00000000
H        0.92351500      -0.00243116       0.00000000
H       -0.26668784       1.03322161       0.00000000
3
Lattice="15.0 0.0 0.0 0.0 15.0 0.0 0.0 0.0 15.0" Properties=species:S:1:pos:R:3 energy=0.1311676997 pbc="T T T"
O        0.00124152      -0.00422649       0.00000000
H        0.95940956      -0.00243160       0.00000000
H       -0.25779965       0.99845662       0.00000000
3
Lattice="15.0 0.0 0.0 0.0 15.0 0.0 0.0 0.0 15.0" Properties=species:S:1:pos:R:3 energy=0.0694000685 pbc="T T T"
O       -0.00158021      -0.00203595       0.00000000
H        0.99530411      -0.00243204       0.00000000
H       -0.24891146       0.96369163       0.00000000
3
Lattice="15.0 0.0 0.0 0.0 15.0 0.0 0.0 0.0 15.0" Properties=species:S:1:pos:R:3 energy=0.131165248 pbc="T T T"
O       -0.00440193       0.00015460       0.00000000
H        1.03119866      -0.00243248       0.00000000
H       -0.24002326       0.92892664       0.00000000
3
Lattice="15.0 0.0 0.0 0.0 15.0 0.0 0.0 0.0 15.0" Properties=species:S:1:pos:R:3 energy=0.3204604193 pbc="T T T"
O       -0.00722365       0.00234514       0.00000000
H        1.06709321      -0.00243292       0.00000000
H       -0.23113507       0.89416164       0.00000000
3
Lattice="15.0 0.0 0.0 0.0 15.0 0.0 0.0 0.0 15.0" Properties=species:S:1:pos:R:3 energy=0.6495870147 pbc="T T T"
O       -0.01004537       0.00453569       0.00000000
H        1.10298777      -0.00243336       0.00000000
H       -0.22224688       0.85939665       0.00000000
3
Lattice="15.0 0.0 0.0 0.0 15.0 0.0 0.0 0.0 15.0" Properties=species:S:1:pos:R:3 energy=1.1399990242 pbc="T T T"
O       -0.01286710       0.00672623       0.00000000
H        1.13888232      -0.00243380       0.00000000
H       -0.21335869       0.82463166       0.00000000
3
Lattice="15.0 0.0 0.0 0.0 15.0 0.0 0.0 0.0 15.0" Properties=species:S:1:pos:R:3 energy=1.8237873497 pbc="T T T"
O       -0.01568882       0.00891677       0.00000000
H        1.17477687      -0.00243424       0.00000000
H       -0.20447050       0.78986667       0.00000000
3
Lattice="15.0 0.0 0.0 0.0 15.0 0.0 0.0 0.0 15.0" Properties=species:S:1:pos:R:3 energy=2.7459297536 pbc="T T T"
O       -0.01851054       0.01110732       0.00000000
H        1.21067142      -0.00243468       0.00000000
H       -0.19558231       0.75510168       0.00000000
3
Lattice="15.0 0.0 0.0 0.0 15.0 0.0 0.0 0.0 15.0" Properties=species:S:1:pos:R:3 energy=3.9675328319 pbc="T T T"
O       -0.02133226       0.01329786       0.00000000
H        1.24656598      -0.00243512       0.00000000
H       -0.18669412       0.72033668       0.00000000
3
Lattice="15.0 0.0 0.0 0.0 15.0 0.0 0.0 0.0 15.0" Properties=species:S:1:pos:R:3 energy=2.3001781402 pbc="T T T"
O        0.01376992      -0.01721516       0.00000000
H        0.81640927      -0.00486144       0.00000000
H       -0.31363409       1.20702579       0.00000000
3
Lattice="15.0 0.0 0.0 0.0 15.0 0.0 0.0 0.0 15.0" Properties=species:S:1:pos:R:3 energy=1.5937294324 pbc="T T T"
O        0.01094820      -0.01502462       0.00000000
H        0.85230382      -0.00486188       0.00000000
H       -0.30474590       1.17226080       0.00000000
3
Lattice="15.0 0.0 0.0 0.0 15.0 0.0 0.0 0.0 15.0" Properties=species:S:1:pos:R:3 energy=1.07089507 pbc="T T T"
O        0.00812648      -0.01283407       0.00000000
H        0.88819838      -0.00486232       0.00000000
H       -0.29585771       1.13749580       0.00000000
3
Lattice="15.0 0.0 0.0 0.0 15.0 0.0 0.0 0.0 15.0" Properties=species:S:1:pos:R:3 energy=0.696642206 pbc="T T T"
O        0.00530475      -0.01064353       0.00000000
H        0.92409293      -0.00486276       0.00000000
H       -0.28696952       1.10273081       0.00000000
3
Lattice="15.0 0.0 0.0 0.0 15.0 0.0 0.0 0.0 15.0" Properties=species:S:1:pos:R:3 energy=0.4459032325 pbc="T T T"
O        0.00248303      -0.00845299       0.00000000
H        0.95998748      -0.00486320       0.00000000
H       -0.27808132       1.06796582       0.00000000
3
Lattice="15.0 0.0 0.0 0.0 15.0 0.0 0.0 0.0 15.0" Properties=species:S:1:pos:R:3 energy=0.3018830864 pbc="T T T"
O       -0.00033869      -0.00626244       0.00000000
H        0.99588203      -0.00486364       0.00000000
H       -0.26919313       1.03320083       0.00000000
3
Lattice="15.0 0.0 0.0 0.0 15.0 0.0 0.0 0.0 15.0" Properties=species:S:1:pos:R:3 energy=0.2549314589 pbc="T T T"
O       -0.00316041      -0.00407190       0.00000000
H        1.03177659      -0.00486408       0.00000000
H       -0.26030494       0.99843584       0.00000000
3
Lattice="15.0 0.0 0.0 0.0 15.0 0.0 0.0 0.0 15.0" Properties=species:S:1:pos:R:3 energy=0.3018928961 pbc="T T T"
O       -0.00598214      -0.00188135       0.00000000
H        1.06767114      -0.00486452       0.00000000
H       -0.25141675       0.96367084       0.00000000
3
Lattice="15.0 0.0 0.0 0.0 15.0 0.0 0.0 0.0 15.0" Properties=species:S:1:pos:R:3 energy=0.4458939045 pbc="T T T"
O       -0.00880386       0.00030919       0.00000000
H        1.10356569      -0.00486496       0.00000000
H       -0.24252856       0.92890585       0.00000000
3
Lattice="15.0 0.0 0.0 0.0 15.0 0.0 0.0 0.0 15.0" Properties=species:S:1:pos:R:3 energy=0.6965533554 pbc="T T T"
O       -0.01162558       0.00249974       0.00000000
H        1.13946025      -0.00486540       0.00000000
H       -0.23364037       0.89414086       0.00000000
3
Lattice="15.0 0.0 0.0 0.0 15.0 0.0 0.0 0.0 15.0" Properties=species:S:1:pos:R:3 energy=1.0706288746 pbc="T T T"
O       -0.01444730       0.00469028       0.00000000