3
Lattice="15.0 0.0 0.0 0.0 15.0 0.0 0.0 0.0 15.0" Properties=species:S:1:pos:R:3 energy=-75.9946805137 pbc="T T T"
O        0.02539550      -0.01971490       0.00000000
H        0.63578066       0.00000396       0.00000000
H       -0.31751169       1.24183235       0.00000000
3
Lattice="15.0 0.0 0.0 0.0 15.0 0.0 0.0 0.0 15.0" Properties=species:S:1:pos:R:3 energy=-76.0947379794 pbc="T T T"
O        0.02257378      -0.01752436       0.00000000
H        0.67167521       0.00000352       0.00000000
H       -0.30862350       1.20706736       0.00000000
3
Lattice="15.0 0.0 0.0 0.0 15.0 0.0 0.0 0.0 15.0" Properties=species:S:1:pos:R:3 energy=-76.1712855866 pbc="T T T"
O        0.01975206      -0.01533381       0.00000000
H        0.70756976       0.00000308       0.00000000
H       -0.29973531       1.17230237       0.00000000
3
Lattice="15.0 0.0 0.0 0.0 15.0 0.0 0.0 0.0 15.0" Properties=species:S:1:pos:R:3 energy=-76.2296086925 pbc="T T T"
O        0.01693033      -0.01314327       0.00000000
H        0.74346431       0.00000264       0.00000000
H       -0.29084712       1.13753737       0.00000000
3
Lattice="15.0 0.0 0.0 0.0 15.0 0.0 0.0 0.0 15.0" Properties=species:S:1:pos:R:3 energy=-76.2736450893 pbc="T T T"
O        0.01410861      -0.01095272       0.00000000
H        0.77935887       0.00000220       0.00000000
H       -0.28195893       1.10277238       0.00000000
3
Lattice="15.0 0.0 0.0 0.0 15.0 0.0 0.0 0.0 15.0" Properties=species:S:1:pos:R:3 energy=-76.3063172131 pbc="T T T"
O        0.01128689      -0.00876218       0.00000000
H        0.81525342       0.00000176       0.00000000
H       -0.27307073       1.06800739       0.00000000
3
Lattice="15.0 0.0 0.0 0.0 15.0 0.0 0.0 0.0 15.0" Properties=species:S:1:pos:R:3 energy=-76.3297657485 pbc="T T T"
O        0.00846517      -0.00657163       0.00000000
H        0.85114797       0.00000132       0.00000000
H       -0.26418254       1.03324240       0.00000000
3
Lattice="15.0 0.0 0.0 0.0 15.0 0.0 0.0 0.0 15.0" Properties=species:S:1:pos:R:3 energy=-76.3455128137 pbc="T T T"
O        0.00564344      -0.00438109       0.00000000
H        0.88704253       0.00000088       0.00000000
H       -0.25529435       0.99847740       0.00000000
3
Lattice="15.0 0.0 0.0 0.0 15.0 0.0 0.0 0.0 15.0" Properties=species:S:1:pos:R:3 energy=-76.3545739087 pbc="T T T"
O        0.00282172      -0.00219054       0.00000000
H        0.92293708       0.00000044       0.00000000
H       -0.24640616       0.96371241       0.00000000
3
Lattice="15.0 0.0 0.0 0.0 15.0 0.0 0.0 0.0 15.0" Properties=species:S:1:pos:R:3 energy=-76.3575310289 pbc="T T T"
O        0.00000000       0.00000000       0.00000000
H        0.95883163       0.00000000       0.00000000
H       -0.23751797       0.92894742       0.00000000
3
Lattice="15.0 0.0 0.0 0.0 15.0 0.0 0.0 0.0 15.0" Properties=species:S:1:pos:R:3 energy=-76.3545741488 pbc="T T T"
O       -0.00282172       0.00219054       0.00000000
H        0.99472618      -0.00000044       0.00000000
H       -0.22862978       0.89418243       0.00000000
3
Lattice="15.0 0.0 0.0 0.0 15.0 0.0 0.0 0.0 15.0" Properties=species:S:1:pos:R:3 energy=-76.3455147559 pbc="T T T"
O       -0.00564344       0.00438109       0.00000000
H        1.03062074      -0.00000088       0.00000000
H       -0.21974159       0.85941744       0.00000000
3
Lattice="15.0 0.0 0.0 0.0 15.0 0.0 0.0 0.0 15.0" Properties=species:S:1:pos:R:3 energy=-76.3297724751 pbc="T T T"
O       -0.00846517       0.00657163       0.00000000
H        1.06651529      -0.00000132       0.00000000
H       -0.21085340       0.82465244       0.00000000
3
Lattice="15.0 0.0 0.0 0.0 15.0 0.0 0.0 0.0 15.0" Properties=species:S:1:pos:R:3 energy=-76.3063337292 pbc="T T T"
O       -0.01128689       0.00876218       0.00000000
H        1.10240984      -0.00000176       0.00000000
H       -0.20196520       0.78988745       0.00000000
3
Lattice="15.0 0.0 0.0 0.0 15.0 0.0 0.0 0.0 15.0" Properties=species:S:1:pos:R:3 energy=-76.2736788654 pbc="T T T"
O       -0.01410861       0.01095272       0.00000000
H        1.13830439      -0.00000220       0.00000000
H       -0.19307701       0.75512246       0.00000000
3
Lattice="15.0 0.0 0.0 0.0 15.0 0.0 0.0 0.0 15.0" Properties=species:S:1:pos:R:3 energy=-76.2296704440 pbc="T T T"
O       -0.01693033       0.01314327       0.00000000
H        1.17419895      -0.00000264       0.00000000
H       -0.18418882       0.72035747       0.00000000
3
Lattice="15.0 0.0 0.0 0.0 15.0 0.0 0.0 0.0 15.0" Properties=species:S:1:pos:R:3 energy=-76.1713904528 pbc="T T T"
O       -0.01975206       0.01533381       0.00000000
H        1.21009350      -0.00000308       0.00000000
H       -0.17530063       0.68559248       0.00000000
3
Lattice="15.0 0.0 0.0 0.0 15.0 0.0 0.0 0.0 15.0" Properties=species:S:1:pos:R:3 energy=-76.0949071423 pbc="T T T"
O       -0.02257378       0.01752436       0.00000000
H        1.24598805      -0.00000352       0.00000000
H       -0.16641244       0.65082748       0.00000000
