3
Lattice="15.0 0.0 0.0 0.0 15.0 0.0 0.0 0.0 15.0" Properties=species:S:1:pos:R:3 energy=1.8223321392 pbc="T T T"
O       -0.01856604      -0.03117466       0.00000000
H        1.09698347       0.21976040       0.00000000
H       -0.08100723       1.20395129       0.00000000
3
Lattice="15.0 0.0 0.0 0.0 15.0 0.0 0.0 0.0 15.0" Properties=species:S:1:pos:R:3 energy=2.9878099787 pbc="T T T"
O       -0.01664841       0.00094515       0.00000000
H        0.99213012       0.17633967       0.00000000
H       -0.00658963       0.73760650       0.00000000
3
Lattice="15.0 0.0 0.0 0.0 15.0 0.0 0.0 0.0 15.0" Properties=species:S:1:pos:R:3 energy=1.6028722077 pbc="T T T"
O        0.00322429       0.00221955       0.00000000
H        1.12823931      -0.17827895       0.00000000
H       -0.45810210       1.07200218       0.00000000
3
Lattice="15.0 0.0 0.0 0.0 15.0 0.0 0.0 0.0 15.0" Properties=species:S:1:pos:R:3 energy=3.7571924318 pbc="T T T"
O        0.00747462      -0.01940999       0.00000000
H        0.69743596       0.17202316       0.00000000
H       -0.09474532       1.06497319       0.00000000
3
Lattice="15.0 0.0 0.0 0.0 15.0 0.0 0.0 0.0 15.0" Properties=species:S:1:pos:R:3 energy=2.5953253854 pbc="T T T"
O        0.00043745       0.02749865       0.00000000
H        1.09059538      -0.19435649       0.00000000
H       -0.37622973       0.68688163       0.00000000
3
Lattice="15.0 0.0 0.0 0.0 15.0 0.0 0.0 0.0 15.0" Properties=species:S:1:pos:R:3 energy=2.0070154377 pbc="T T T"
O       -0.00410204      -0.03754422       0.00000000
H        0.88310575       0.22765759       0.00000000
H       -0.09668335       1.29714280       0.00000000
3
Lattice="15.0 0.0 0.0 0.0 15.0 0.0 0.0 0.0 15.0" Properties=species:S:1:pos:R:3 energy=1.1338205185 pbc="T T T"
O       -0.00248188      -0.01229752       0.00000000
H        1.06950277      -0.01660275       0.00000000
H       -0.30880005       1.14072144       0.00000000
3
Lattice="15.0 0.0 0.0 0.0 15.0 0.0 0.0 0.0 15.0" Properties=species:S:1:pos:R:3 energy=0.3275617339 pbc="T T T"
O       -0.00865423      -0.00831278       0.00000000
H        0.93960234       0.14778005       0.00000000
H       -0.08093593       0.91309645       0.00000000
3
Lattice="15.0 0.0 0.0 0.0 15.0 0.0 0.0 0.0 15.0" Properties=species:S:1:pos:R:3 energy=1.6268826449 pbc="T T T"
O       -0.01127300      -0.01936452       0.00000000
H        1.14093146       0.05854090       0.00000000
H       -0.24070529       1.17773627       0.00000000
3
Lattice="15.0 0.0 0.0 0.0 15.0 0.0 0.0 0.0 15.0" Properties=species:S:1:pos:R:3 energy=0.5228346426 pbc="T T T"
O       -0.00887882       0.00276815       0.00000000
H        1.03845880       0.03886772       0.00000000
H       -0.17623095       0.84614722       0.00000000
3
Lattice="15.0 0.0 0.0 0.0 15.0 0.0 0.0 0.0 15.0" Properties=species:S:1:pos:R:3 energy=2.426366589 pbc="T T T"
O       -0.03082470      -0.00803635       0.00000000
H        1.15309712       0.25435409       0.00000000
H        0.05743350       0.80213538       0.00000000
3
Lattice="15.0 0.0 0.0 0.0 15.0 0.0 0.0 0.0 15.0" Properties=species:S:1:pos:R:3 energy=2.032309817 pbc="T T T"
O       -0.01300166       0.00564112       0.00000000
H        1.03932851       0.07994964       0.00000000
H       -0.11166707       0.75946890       0.00000000
3
Lattice="15.0 0.0 0.0 0.0 15.0 0.0 0.0 0.0 15.0" Properties=species:S:1:pos:R:3 energy=4.2031462313 pbc="T T T"
O        0.00654025       0.03191048       0.00000000
H        0.97713157      -0.19536170       0.00000000
H       -0.35962192       0.61786733       0.00000000
3
Lattice="15.0 0.0 0.0 0.0 15.0 0.0 0.0 0.0 15.0" Properties=species:S:1:pos:R:3 energy=1.8136432416 pbc="T T T"
O       -0.02344828      -0.00269056       0.00000000
H        1.32566375       0.01260067       0.00000000
H       -0.23220847       0.95904925       0.00000000
3
Lattice="15.0 0.0 0.0 0.0 15.0 0.0 0.0 0.0 15.0" Properties=species:S:1:pos:R:3 energy=0.9747788273 pbc="T T T"
O       -0.02218535      -0.01757266       0.00000000
H        1.10416110       0.21593154       0.00000000
H       -0.03074401       0.99190626       0.00000000
3
Lattice="15.0 0.0 0.0 0.0 15.0 0.0 0.0 0.0 15.0" Properties=species:S:1:pos:R:3 energy=3.6057331553 pbc="T T T"
O       -0.01327328       0.01517638       0.00000000
H        1.12970218      -0.01692572       0.00000000
H       -0.19773267       0.70501344       0.00000000
3
Lattice="15.0 0.0 0.0 0.0 15.0 0.0 0.0 0.0 15.0" Properties=species:S:1:pos:R:3 energy=0.2429073134 pbc="T T T"
O        0.00556769      -0.00292944       0.00000000
H        0.91556173      -0.02578542       0.00000000
H       -0.28261188       1.00122520       0.00000000
3
Lattice="15.0 0.0 0.0 0.0 15.0 0.0 0.0 0.0 15.0" Properties=species:S:1:pos:R:3 energy=2.031597929 pbc="T T T"
O        0.01655364      -0.00829491       0.00000000
H        0.94239858      -0.16510911       0.00000000
H       -0.48380720       1.22570395       0.00000000
3
Lattice="15.0 0.0 0.0 0.0 15.0 0.0 0.0 0.0 15.0" Properties=species:S:1:pos:R:3 energy=1.8885809251 pbc="T T T"
O       -0.01676059      -0.03595159       0.00000000
H        1.02861742       0.26564995       0.00000000
H       -0.04129368       1.23387462       0.00000000
3
Lattice="15.0 0.0 0.0 0.0 15.0 0.0 0.0 0.0 15.0" Properties=species:S:1:pos:R:3 energy=1.6118217849 pbc="T T T"
O       -0.02503862      -0.00273516       0.00000000
H        1.21147256       0.12101260       0.00000000
H       -0.09277477       0.85134408       0.00000000
3
Lattice="15.0 0.0 0.0 0.0 15.0 0.0 0.0 0.0 15.0" Properties=species:S:1:pos:R:3 energy=1.8595428742 pbc="T T T"
O        0.02804387       0.01711979       0.00000000
H        0.77123957      -0.25388703       0.00000000
H       -0.49500927       0.91113157       0.00000000
3
Lattice="15.0 0.0 0.0 0.0 15.0 0.0 0.0 0.0 15.0" Properties=species:S:1:pos:R:3 energy=2.3872243708 pbc="T T T"
O       -0.01100430       0.01762439       0.00000000
H        1.18824569      -0.09806262       0.00000000
H       -0.29228861       0.74729933       0.00000000
3
Lattice="15.0 0.0 0.0 0.0 15.0 0.0 0.0 0.0 15.0" Properties=species:S:1:pos:R:3 energy=2.2493096378 pbc="T T T"
O       -0.02489858      -0.03346724       0.00000000
H        1.15633785       0.25893649       0.00000000
H       -0.03985846       1.20116014       0.00000000
3
Lattice="15.0 0.0 0.0 0.0 15.0 0.0 0.0 0.0 15.0" Properties=species:S:1:pos:R:3 energy=1.6641681921 pbc="T T T"
O       -0.01066204      -0.03462840       0.00000000
H        0.96393394       0.23655029       0.00000000
H       -0.07339943       1.24197415       0.00000000
3
Lattice="15.0 0.0 0.0 0.0 15.0 0.0 0.0 0.0 15.0" Properties=species:S:1:pos:R:3 energy=0.7546404425 pbc="T T T"
O        0.00570818       0.01309997       0.00000000
H        0.90418066      -0.06918757       0.00000000
H       -0.27346191       0.79022895       0.00000000
3
Lattice="15.0 0.0 0.0 0.0 15.0 0.0 0.0 0.0 15.0" Properties=species:S:1:pos:R:3 energy=0.5179825885 pbc="T T T"
O        0.01124742       0.02050380       0.00000000
H        0.97298008      -0.21420688       0.00000000
H       -0.43017696       0.81774505       0.00000000
3
Lattice="15.0 0.0 0.0 0.0 15.0 0.0 0.0 0.0 15.0" Properties=species:S:1:pos:R:3 energy=0.7430809641 pbc="T T T"
O        0.01831018       0.01544697       0.00000000
H        0.84054472      -0.18247511       0.00000000
H       -0.40983180       0.86626831       0.00000000
3
Lattice="15.0 0.0 0.0 0.0 15.0 0.0 0.0 0.0 15.0" Properties=species:S:1:pos:R:3 energy=3.0350698105 pbc="T T T"
O        0.00080031      -0.02786595       0.00000000
H        0.71333151       0.26857867       0.00000000
H       -0.00471206       1.10261949       0.00000000
3
Lattice="15.0 0.0 0.0 0.0 15.0 0.0 0.0 0.0 15.0" Properties=species:S:1:pos:R:3 energy=0.7799838322 pbc="T T T"
O        0.01994511       0.01818713       0.00000000
H        0.91284865      -0.26740389       0.00000000
H       -0.50808548       0.90770947       0.00000000
3
Lattice="15.0 0.0 0.0 0.0 15.0 0.0 0.0 0.0 15.0" Properties=species:S:1:pos:R:3 energy=0.5203792341 pbc="T T T"
O        0.00033186       0.01328085       0.00000000
H        1.05076560      -0.11732648       0.00000000
H       -0.33472203       0.83549795       0.00000000
3
Lattice="15.0 0.0 0.0 0.0 15.0 0.0 0.0 0.0 15.0" Properties=species:S:1:pos:R:3 energy=1.3810472367 pbc="T T T"
O       -0.01764625      -0.02987376       0.00000000
H        1.02308606       0.26170888       0.00000000
H       -0.02170646       1.14135590       0.00000000
3
Lattice="15.0 0.0 0.0 0.0 15.0 0.0 0.0 0.0 15.0" Properties=species:S:1:pos:R:3 energy=2.4490545147 pbc="T T T"
O        0.00133864      -0.02598834       0.00000000
H        0.74573630       0.23086495       0.00000000
H       -0.04566149       1.11053456       0.00000000
3
Lattice="15.0 0.0 0.0 0.0 15.0 0.0 0.0 0.0 15.0" Properties=species:S:1:pos:R:3 energy=0.5643151515 pbc="T T T"
O       -0.00912140       0.00296100       0.00000000
H        1.04080415       0.03942840       0.00000000
H       -0.17472632       0.84252577       0.00000000
3
Lattice="15.0 0.0 0.0 0.0 15.0 0.0 0.0 0.0 15.0" Properties=species:S:1:pos:R:3 energy=1.3745392637 pbc="T T T"
O        0.01144326      -0.01159889       0.00000000
H        0.89745570      -0.05681889       0.00000000
H       -0.35775609       1.16984936       0.00000000
3
Lattice="15.0 0.0 0.0 0.0 15.0 0.0 0.0 0.0 15.0" Properties=species:S:1:pos:R:3 energy=1.7469048004 pbc="T T T"
O       -0.02757823      -0.00451953       0.00000000
H        1.30245624       0.08728231       0.00000000
H       -0.14345383       0.91339425       0.00000000
3
Lattice="15.0 0.0 0.0 0.0 15.0 0.0 0.0 0.0 15.0" Properties=species:S:1:pos:R:3 energy=1.9601655754 pbc="T T T"
O       -0.01011639      -0.03701586       0.00000000
H        0.98598737       0.22022363       0.00000000
H       -0.10411300       1.29619177       0.00000000
3
Lattice="15.0 0.0 0.0 0.0 15.0 0.0 0.0 0.0 15.0" Properties=species:S:1:pos:R:3 energy=1.9786498264 pbc="T T T"
O        0.01100681      -0.02025366       0.00000000
H        0.86926172      -0.00227574       0.00000000
H       -0.32263379       1.25266352       0.00000000
3
Lattice="15.0 0.0 0.0 0.0 15.0 0.0 0.0 0.0 15.0" Properties=species:S:1:pos:R:3 energy=0.3319440433 pbc="T T T"
O       -0.00366254       0.00429355       0.00000000
H        1.07203868      -0.05629969       0.00000000
H       -0.29259935       0.91710610       0.00000000
3
Lattice="15.0 0.0 0.0 0.0 15.0 0.0 0.0 0.0 15.0" Properties=species:S:1:pos:R:3 energy=0.8993287099 pbc="T T T"
O       -0.01081358       0.00681738       0.00000000
H        1.14282175      -0.03108762       0.00000000
H       -0.24988968       0.85183905       0.00000000
3
Lattice="15.0 0.0 0.0 0.0 15.0 0.0 0.0 0.0 15.0" Properties=species:S:1:pos:R:3 energy=4.3966340459 pbc="T T T"
O       -0.00644403       0.01996335       0.00000000
H        1.04968794      -0.05404005       0.00000000
H       -0.22610456       0.66615490       0.00000000
3
Lattice="15.0 0.0 0.0 0.0 15.0 0.0 0.0 0.0 15.0" Properties=species:S:1:pos:R:3 energy=1.7860265856 pbc="T T T"
O       -0.02806272      -0.00856742       0.00000000
H        1.31388562       0.09713282       0.00000000
H       -0.14719366       0.96778673       0.00000000
3
Lattice="15.0 0.0 0.0 0.0 15.0 0.0 0.0 0.0 15.0" Properties=species:S:1:pos:R:3 energy=1.2581195664 pbc="T T T"
O       -0.00414867       0.01710214       0.00000000
H        1.14794547      -0.14961163       0.00000000
H       -0.36079344       0.80713699       0.00000000
3
Lattice="15.0 0.0 0.0 0.0 15.0 0.0 0.0 0.0 15.0" Properties=species:S:1:pos:R:3 energy=1.3106027571 pbc="T T T"
O       -0.01009828      -0.02111660       0.00000000
H        0.83539859       0.28683781       0.00000000
H        0.04618977       0.97724349       0.00000000
3
Lattice="15.0 0.0 0.0 0.0 15.0 0.0 0.0 0.0 15.0" Properties=species:S:1:pos:R:3 energy=2.4582876944 pbc="T T T"
O       -0.03955609      -0.01622922       0.00000000
H        1.38805630       0.20532399       0.00000000
H       -0.03895332       0.98119364       0.00000000
3
Lattice="15.0 0.0 0.0 0.0 15.0 0.0 0.0 0.0 15.0" Properties=species:S:1:pos:R:3 energy=0.5980659506 pbc="T T T"
O        0.00888866       0.01220222       0.00000000
H        1.02113930      -0.19637608       0.00000000
H       -0.44090029       0.93166672       0.00000000
3
Lattice="15.0 0.0 0.0 0.0 15.0 0.0 0.0 0.0 15.0" Properties=species:S:1:pos:R:3 energy=1.5160227508 pbc="T T T"
O       -0.01025848       0.00311922       0.00000000
H        1.24094027      -0.10246707       0.00000000
H       -0.35681972       0.98191192       0.00000000
3
Lattice="15.0 0.0 0.0 0.0 15.0 0.0 0.0 0.0 15.0" Properties=species:S:1:pos:R:3 energy=3.5555534356 pbc="T T T"
O        0.00980992      -0.01845741       0.00000000
H        0.71462754       0.12689171       0.00000000
H       -0.14900095       1.09498675       0.00000000
3
Lattice="15.0 0.0 0.0 0.0 15.0 0.0 0.0 0.0 15.0" Properties=species:S:1:pos:R:3 energy=1.7490209292 pbc="T T T"
O       -0.03239817      -0.01348254       0.00000000
H        1.24775651       0.21740113       0.00000000
H       -0.01225467       0.92552402       0.00000000
3
Lattice="15.0 0.0 0.0 0.0 15.0 0.0 0.0 0.0 15.0" Properties=species:S:1:pos:R:3 energy=0.4028104463 pbc="T T T"
O        0.00197399       0.00877359       0.00000000
H        0.93599925      -0.03424302       0.00000000
H       -0.24601529       0.82394716       0.00000000
3
Lattice="15.0 0.0 0.0 0.0 15.0 0.0 0.0 0.0 15.0" Properties=species:S:1:pos:R:3 energy=7.0101454808 pbc="T T T"
O       -0.01478488       0.01372964       0.00000000
H        1.05014506       0.06803991       0.00000000
H       -0.09418308       0.64300785       0.00000000
3
Lattice="15.0 0.0 0.0 0.0 15.0 0.0 0.0 0.0 15.0" Properties=species:S:1:pos:R:3 energy=4.3435844284 pbc="T T T"
O       -0.00471953       0.02780276       0.00000000
H        1.12848513      -0.16118247       0.00000000
H       -0.33227366       0.64888102       0.00000000
3
Lattice="15.0 0.0 0.0 0.0 15.0 0.0 0.0 0.0 15.0" Properties=species:S:1:pos:R:3 energy=1.3453597325 pbc="T T T"
O        0.01159436      -0.00826982       0.00000000
H        0.94206613      -0.10381198       0.00000000
H       -0.40476593       1.16400820       0.00000000
3
Lattice="15.0 0.0 0.0 0.0 15.0 0.0 0.0 0.0 15.0" Properties=species:S:1:pos:R:3 energy=0.634501338 pbc="T T T"
O        0.00922575      -0.00318090       0.00000000
H        0.85220285      -0.02087538       0.00000000
H       -0.27730900       1.00030570       0.00000000
3
Lattice="15.0 0.0 0.0 0.0 15.0 0.0 0.0 0.0 15.0" Properties=species:S:1:pos:R:3 energy=4.1880273457 pbc="T T T"
O       -0.00589138       0.01198693       0.00000000
H        0.93616420       0.05243656       0.00000000
H       -0.12134886       0.68626901       0.00000000
3
Lattice="15.0 0.0 0.0 0.0 15.0 0.0 0.0 0.0 15.0" Properties=species:S:1:pos:R:3 energy=1.3120221737 pbc="T T T"
O        0.02332295       0.01784206       0.00000000
H        0.79495538      -0.21639812       0.00000000
H       -0.44379959       0.86217940       0.00000000
3
Lattice="15.0 0.0 0.0 0.0 15.0 0.0 0.0 0.0 15.0" Properties=species:S:1:pos:R:3 energy=0.1318524334 pbc="T T T"
O       -0.00513024      -0.00039692       0.00000000
H        0.98269110       0.04594834       0.00000000
H       -0.17995559       0.88929836       0.00000000
3
Lattice="15.0 0.0 0.0 0.0 15.0 0.0 0.0 0.0 15.0" Properties=species:S:1:pos:R:3 energy=4.1906793865 pbc="T T T"
O        0.00347649      -0.02535300       0.00000000
H        0.66868244       0.26235022       0.00000000
H       -0.00253613       1.06896548       0.00000000
3
Lattice="15.0 0.0 0.0 0.0 15.0 0.0 0.0 0.0 15.0" Properties=species:S:1:pos:R:3 energy=2.3489077243 pbc="T T T"
O        0.02139434       0.00469358       0.00000000
H        0.98349537      -0.29760500       0.00000000
H       -0.60173301       1.15206378       0.00000000
3
Lattice="15.0 0.0 0.0 0.0 15.0 0.0 0.0 0.0 15.0" Properties=species:S:1:pos:R:3 energy=2.8930529665 pbc="T T T"
O       -0.00435505       0.02247395       0.00000000
H        1.09581806      -0.12351663       0.00000000
H       -0.30539017       0.69578702       0.00000000
3
Lattice="15.0 0.0 0.0 0.0 15.0 0.0 0.0 0.0 15.0" Properties=species:S:1:pos:R:3 energy=1.2230058742 pbc="T T T"
O       -0.00939736      -0.00860842       0.00000000
H        0.87048370       0.21154224       0.00000000
H       -0.00002154       0.85402555       0.00000000
3
Lattice="15.0 0.0 0.0 0.0 15.0 0.0 0.0 0.0 15.0" Properties=species:S:1:pos:R:3 energy=1.6421758792 pbc="T T T"
O       -0.00878147      -0.02526570       0.00000000
H        1.07389462       0.09848547       0.00000000
H       -0.21320974       1.23144725       0.00000000
3
Lattice="15.0 0.0 0.0 0.0 15.0 0.0 0.0 0.0 15.0" Properties=species:S:1:pos:R:3 energy=1.1269671432 pbc="T T T"
O        0.00919924      -0.01033267       0.00000000
H        0.83731972       0.01354348       0.00000000
H       -0.26200423       1.07939056       0.00000000
3
Lattice="15.0 0.0 0.0 0.0 15.0 0.0 0.0 0.0 15.0" Properties=species:S:1:pos:R:3 energy=0.1849727678 pbc="T T T"
O       -0.00219561      -0.00369995       0.00000000
H        1.01455364      -0.00455232       0.00000000
H       -0.25839417       0.99222100       0.00000000
3
Lattice="15.0 0.0 0.0 0.0 15.0 0.0 0.0 0.0 15.0" Properties=species:S:1:pos:R:3 energy=4.1837813736 pbc="T T T"
O        0.02417092      -0.00111722       0.00000000
H        0.71498517      -0.10500938       0.00000000
H       -0.37728413       1.05168763       0.00000000
3
Lattice="15.0 0.0 0.0 0.0 15.0 0.0 0.0 0.0 15.0" Properties=species:S:1:pos:R:3 energy=0.500596249 pbc="T T T"
O       -0.00367690      -0.01533040       0.00000000
H        0.96873833       0.08592712       0.00000000
H       -0.18906715       1.08632459       0.00000000
3
Lattice="15.0 0.0 0.0 0.0 15.0 0.0 0.0 0.0 15.0" Properties=species:S:1:pos:R:3 energy=0.4078488004 pbc="T T T"
O        0.01305148       0.01128316       0.00000000
H        0.93851710      -0.18062466       0.00000000
H       -0.42434467       0.93050100       0.00000000
3
Lattice="15.0 0.0 0.0 0.0 15.0 0.0 0.0 0.0 15.0" Properties=species:S:1:pos:R:3 energy=2.1392197144 pbc="T T T"
O       -0.00875067      -0.03691113       0.00000000
H        1.01052138       0.18401121       0.00000000
H       -0.15032297       1.33074231       0.00000000
3
Lattice="15.0 0.0 0.0 0.0 15.0 0.0 0.0 0.0 15.0" Properties=species:S:1:pos:R:3 energy=1.0067071085 pbc="T T T"
O       -0.01161049      -0.00927574       0.00000000
H        0.90596747       0.21336554       0.00000000
H       -0.00038134       0.86279328       0.00000000
3
Lattice="15.0 0.0 0.0 0.0 15.0 0.0 0.0 0.0 15.0" Properties=species:S:1:pos:R:3 energy=0.9096632895 pbc="T T T"
O        0.00091263       0.01659027       0.00000000
H        1.02093351      -0.11174651       0.00000000
H       -0.31410714       0.77739499       0.00000000
3
Lattice="15.0 0.0 0.0 0.0 15.0 0.0 0.0 0.0 15.0" Properties=species:S:1:pos:R:3 energy=0.1501973539 pbc="T T T"
O        0.00047926       0.00144968       0.00000000
H        1.01216207      -0.05188663       0.00000000
H       -0.29845596       0.95782715       0.00000000
3
Lattice="15.0 0.0 0.0 0.0 15.0 0.0 0.0 0.0 15.0" Properties=species:S:1:pos:R:3 energy=1.7520068917 pbc="T T T"
O        0.01500360      -0.00963113       0.00000000
H        0.91558443      -0.12097433       0.00000000
H       -0.43239178       1.20277550       0.00000000
3
Lattice="15.0 0.0 0.0 0.0 15.0 0.0 0.0 0.0 15.0" Properties=species:S:1:pos:R:3 energy=1.229829902 pbc="T T T"
O       -0.02170293      -0.01589316       0.00000000
H        1.18185624       0.14436203       0.00000000
H       -0.11609739       1.03682167       0.00000000
3
Lattice="15.0 0.0 0.0 0.0 15.0 0.0 0.0 0.0 15.0" Properties=species:S:1:pos:R:3 energy=2.1564649167 pbc="T T T"
O        0.02491494       0.00219745       0.00000000
H        0.87322473      -0.24749996       0.00000000
H       -0.54733563       1.14157335       0.00000000
3
Lattice="15.0 0.0 0.0 0.0 15.0 0.0 0.0 0.0 15.0" Properties=species:S:1:pos:R:3 energy=0.9254454526 pbc="T T T"
O        0.00629047       0.00558874       0.00000000
H        1.05786386      -0.17203450       0.00000000
H       -0.43638891       1.01228592       0.00000000
3
Lattice="15.0 0.0 0.0 0.0 15.0 0.0 0.0 0.0 15.0" Properties=species:S:1:pos:R:3 energy=0.2312969579 pbc="T T T"
O       -0.00361315      -0.00679716       0.00000000
H        1.01258680       0.02420403       0.00000000
H       -0.23392908       1.01261938       0.00000000
3
Lattice="15.0 0.0 0.0 0.0 15.0 0.0 0.0 0.0 15.0" Properties=species:S:1:pos:R:3 energy=0.6223334538 pbc="T T T"
O       -0.01144736      -0.02024565       0.00000000
H        0.94914821       0.21239031       0.00000000
H       -0.04615084       1.03786921       0.00000000
3
Lattice="15.0 0.0 0.0 0.0 15.0 0.0 0.0 0.0 15.0" Properties=species:S:1:pos:R:3 energy=1.352770446 pbc="T T T"
O        0.00246216      -0.00298722       0.00000000
H        0.79973844       0.10260859       0.00000000
H       -0.11749840       0.87374700       0.00000000
3
Lattice="15.0 0.0 0.0 0.0 15.0 0.0 0.0 0.0 15.0" Properties=species:S:1:pos:R:3 energy=1.4608282857 pbc="T T T"
O        0.00523738       0.02570654       0.00000000
H        1.03921848      -0.20796857       0.00000000
H       -0.40103157       0.72893567       0.00000000
3
Lattice="15.0 0.0 0.0 0.0 15.0 0.0 0.0 0.0 15.0" Properties=species:S:1:pos:R:3 energy=1.8447388489 pbc="T T T"
O       -0.02376522      -0.03138209       0.00000000
H        1.11119567       0.27345264       0.00000000
H       -0.01270320       1.15355083       0.00000000
3
Lattice="15.0 0.0 0.0 0.0 15.0 0.0 0.0 0.0 15.0" Properties=species:S:1:pos:R:3 energy=0.6974387622 pbc="T T T"
O       -0.00173004       0.00356212       0.00000000
H        0.90709207       0.05027382       0.00000000
H       -0.15832016       0.82213957       0.00000000
3
Lattice="15.0 0.0 0.0 0.0 15.0 0.0 0.0 0.0 15.0" Properties=species:S:1:pos:R:3 energy=2.0262068909 pbc="T T T"
O       -0.03350792      -0.00970241       0.00000000
H        1.25523461       0.21335969       0.00000000
H       -0.00212033       0.86957206       0.00000000
3
Lattice="15.0 0.0 0.0 0.0 15.0 0.0 0.0 0.0 15.0" Properties=species:S:1:pos:R:3 energy=2.4723614886 pbc="T T T"
O        0.00818677       0.01039917       0.00000000
H        1.16569233      -0.29429344       0.00000000
H       -0.57431629       1.05820088       0.00000000
3
Lattice="15.0 0.0 0.0 0.0 15.0 0.0 0.0 0.0 15.0" Properties=species:S:1:pos:R:3 energy=0.6292291401 pbc="T T T"
O       -0.00185952      -0.01683639       0.00000000
H        0.94605624       0.08588834       0.00000000
H       -0.19522812       1.11026458       0.00000000
3
Lattice="15.0 0.0 0.0 0.0 15.0 0.0 0.0 0.0 15.0" Properties=species:S:1:pos:R:3 energy=1.4093695874 pbc="T T T"
O       -0.00604070       0.01569863       0.00000000
H        1.19978336      -0.16212526       0.00000000
H       -0.38260385       0.84192563       0.00000000
3
Lattice="15.0 0.0 0.0 0.0 15.0 0.0 0.0 0.0 15.0" Properties=species:S:1:pos:R:3 energy=1.915982584 pbc="T T T"
O       -0.01282173      -0.03603029       0.00000000
H        1.01369999       0.22893909       0.00000000
H       -0.08888984       1.27183456       0.00000000
3
Lattice="15.0 0.0 0.0 0.0 15.0 0.0 0.0 0.0 15.0" Properties=species:S:1:pos:R:3 energy=3.0074276193 pbc="T T T"
O       -0.02034047       0.00459577       0.00000000
H        1.11630901       0.11390979       0.00000000
H       -0.07217448       0.74209933       0.00000000
3
Lattice="15.0 0.0 0.0 0.0 15.0 0.0 0.0 0.0 15.0" Properties=species:S:1:pos:R:3 energy=0.9459216532 pbc="T T T"
O        0.00789137      -0.00886584       0.00000000
H        0.94524230      -0.05876459       0.00000000
H       -0.34917170       1.12841986       0.00000000
3
Lattice="15.0 0.0 0.0 0.0 15.0 0.0 0.0 0.0 15.0" Properties=species:S:1:pos:R:3 energy=1.6963585924 pbc="T T T"
O        0.00252884      -0.02653725       0.00000000
H        0.93388054       0.07182816       0.00000000
H       -0.25269909       1.27828465       0.00000000
3
Lattice="15.0 0.0 0.0 0.0 15.0 0.0 0.0 0.0 15.0" Properties=species:S:1:pos:R:3 energy=1.8938508753 pbc="T T T"
O        0.01013845      -0.01939512       0.00000000
H        0.92163982      -0.03495212       0.00000000
H       -0.36123122       1.27171465       0.00000000
3
Lattice="15.0 0.0 0.0 0.0 15.0 0.0 0.0 0.0 15.0" Properties=species:S:1:pos:R:3 energy=1.4880616177 pbc="T T T"
O        0.01948723       0.00236291       0.00000000
H        0.90567719      -0.20633032       0.00000000
H       -0.49364534       1.09777771       0.00000000
3
Lattice="15.0 0.0 0.0 0.0 15.0 0.0 0.0 0.0 15.0" Properties=species:S:1:pos:R:3 energy=3.9422769595 pbc="T T T"
O       -0.01775443       0.00443261       0.00000000
H        1.02974736       0.14977065       0.00000000
H       -0.02665430       0.70882731       0.00000000
3
Lattice="15.0 0.0 0.0 0.0 15.0 0.0 0.0 0.0 15.0" Properties=species:S:1:pos:R:3 energy=1.5051537151 pbc="T T T"
O        0.01588771      -0.00628609       0.00000000
H        0.86683313      -0.10455371       0.00000000
H       -0.39767156       1.13326639       0.00000000
3
Lattice="15.0 0.0 0.0 0.0 15.0 0.0 0.0 0.0 15.0" Properties=species:S:1:pos:R:3 energy=0.8726684252 pbc="T T T"
O        0.01361118       0.02477695       0.00000000
H        1.01000416      -0.28555247       0.00000000
H       -0.50471746       0.82127322       0.00000000
3
Lattice="15.0 0.0 0.0 0.0 15.0 0.0 0.0 0.0 15.0" Properties=species:S:1:pos:R:3 energy=2.0408004306 pbc="T T T"
O       -0.01486128       0.01353527       0.00000000
H        1.30372936      -0.12732024       0.00000000
H       -0.34655991       0.84145504       0.00000000
3
Lattice="15.0 0.0 0.0 0.0 15.0 0.0 0.0 0.0 15.0" Properties=species:S:1:pos:R:3 energy=1.5909438898 pbc="T T T"
O        0.01774955      -0.00349712       0.00000000
H        0.89312501      -0.15670322       0.00000000
H       -0.45351348       1.14115318       0.00000000
3
Lattice="15.0 0.0 0.0 0.0 15.0 0.0 0.0 0.0 15.0" Properties=species:S:1:pos:R:3 energy=0.3370669976 pbc="T T T"
O       -0.00381024      -0.01315572       0.00000000
H        0.90376075       0.13117459       0.00000000
H       -0.12197232       1.00656284       0.00000000
3
Lattice="15.0 0.0 0.0 0.0 15.0 0.0 0.0 0.0 15.0" Properties=species:S:1:pos:R:3 energy=4.2484361301 pbc="T T T"
O        0.00411309      -0.02852712       0.00000000
H        0.67013904       0.26337535       0.00000000
H       -0.01409586       1.11831592       0.00000000
3
Lattice="15.0 0.0 0.0 0.0 15.0 0.0 0.0 0.0 15.0" Properties=species:S:1:pos:R:3 energy=1.0839149726 pbc="T T T"
O       -0.00456787      -0.02579839       0.00000000
H        0.91518168       0.17147993       0.00000000
H       -0.12136777       1.16690592       0.00000000
3
Lattice="15.0 0.0 0.0 0.0 15.0 0.0 0.0 0.0 15.0" Properties=species:S:1:pos:R:3 energy=0.7715762813 pbc="T T T"
O       -0.01832165      -0.00598286       0.00000000
H        1.10643249       0.13003227       0.00000000
H       -0.09433753       0.89386733       0.00000000
3
Lattice="15.0 0.0 0.0 0.0 15.0 0.0 0.0 0.0 15.0" Properties=species:S:1:pos:R:3 energy=0.4743715179 pbc="T T T"
O       -0.01057128      -0.01657814       0.00000000
H        0.93873623       0.19812232       0.00000000
H       -0.04964341       0.99393118       0.00000000
3
Lattice="15.0 0.0 0.0 0.0 15.0 0.0 0.0 0.0 15.0" Properties=species:S:1:pos:R:3 energy=0.8895434791 pbc="T T T"
O        0.00080556      -0.00703167       0.00000000
H        0.82119207       0.11910927       0.00000000
H       -0.11266010       0.92143470       0.00000000
3
Lattice="15.0 0.0 0.0 0.0 15.0 0.0 0.0 0.0 15.0" Properties=species:S:1:pos:R:3 energy=2.9369177425 pbc="T T T"
O       -0.01451011      -0.00153342       0.00000000
H        0.92758334       0.20791921       0.00000000
H        0.02402153       0.74536326       0.00000000
3
Lattice="15.0 0.0 0.0 0.0 15.0 0.0 0.0 0.0 15.0" Properties=species:S:1:pos:R:3 energy=2.5664395114 pbc="T T T"
O       -0.00638054       0.02201622       0.00000000
H        1.14940316      -0.13872219       0.00000000
H       -0.32682955       0.71825748       0.00000000
3
Lattice="15.0 0.0 0.0 0.0 15.0 0.0 0.0 0.0 15.0" Properties=species:S:1:pos:R:3 energy=1.4670554318 pbc="T T T"
O       -0.01914174      -0.00578394       0.00000000
H        1.25932602       0.02078683       0.00000000
H       -0.23421847       0.99995702       0.00000000
3
Lattice="15.0 0.0 0.0 0.0 15.0 0.0 0.0 0.0 15.0" Properties=species:S:1:pos:R:3 energy=2.3629884083 pbc="T T T"
O        0.02458789      -0.00049569       0.00000000
H        0.89038058      -0.24830527       0.00000000
H       -0.55930095       1.18512092       0.00000000
3
Lattice="15.0 0.0 0.0 0.0 15.0 0.0 0.0 0.0 15.0" Properties=species:S:1:pos:R:3 energy=1.8076756159 pbc="T T T"
O        0.00310201       0.01459785       0.00000000
H        0.90218443      -0.04023886       0.00000000
H       -0.23010320       0.73750762       0.00000000
3
Lattice="15.0 0.0 0.0 0.0 15.0 0.0 0.0 0.0 15.0" Properties=species:S:1:pos:R:3 energy=1.3568165968 pbc="T T T"
O       -0.01232459      -0.01805815       0.00000000
H        1.13174692       0.07451637       0.00000000
H       -0.21483082       1.14102749       0.00000000
3
Lattice="15.0 0.0 0.0 0.0 15.0 0.0 0.0 0.0 15.0" Properties=species:S:1:pos:R:3 energy=4.1417027203 pbc="T T T"
O       -0.00981861       0.02172035       0.00000000
H        1.14577649      -0.09260307       0.00000000
H       -0.26863715       0.67683366       0.00000000
3
Lattice="15.0 0.0 0.0 0.0 15.0 0.0 0.0 0.0 15.0" Properties=species:S:1:pos:R:3 energy=0.9801010261 pbc="T T T"
O       -0.01464575      -0.02566581       0.00000000