 3
 energy=-.39578253127430130E-001 cutoff=3.01000000 nneightol=1.20000000 pbc="T T T" Lattice="15.00000000       0.00000000       0.00000000       0.00000000      15.00000000       0.00000000       0.00000000       0.00000000      15.00000000" Properties=species:S:1:pos:R:3:Z:I:1:map_shift:I:3:n_neighb:I:1
 O               0.00000000      0.00000000      0.00000000       8       0       0       0       2
 H               0.70000000      0.00000000      0.00000000       1       0       0       0       2
 H              -0.17340000      0.67818000      0.00000000       1       0       0       0       2
 3
 energy=-.34510505563571936E-001 cutoff=3.01000000 nneightol=1.20000000 pbc="T T T" Lattice="15.00000000       0.00000000       0.00000000       0.00000000      15.00000000       0.00000000       0.00000000       0.00000000      15.00000000" Properties=species:S:1:pos:R:3:Z:I:1:map_shift:I:3:n_neighb:I:1
 O               0.00000000      0.00000000      0.00000000       8       0       0       0       2
 H               0.70000000      0.00000000      0.00000000       1       0       0       0       2
 H              -0.17938000      0.70157000      0.00000000       1       0       0       0       2
 3
 energy=-.29744669804072199E-001 cutoff=3.01000000 nneightol=1.20000000 pbc="T T T" Lattice="15.00000000       0.00000000       0.00000000       0.00000000      15.00000000       0.00000000       0.00000000       0.00000000      15.00000000" Properties=species:S:1:pos:R:3:Z:I:1:map_shift:I:3:n_neighb:I:1
 O               0.00000000      0.00000000      0.00000000       8       0       0       0       2
 H               0.70000000      0.00000000      0.00000000       1       0       0       0       2
 H              -0.18536000      0.72496000      0.00000000       1       0       0       0       2
 3
 energy=-.25347321880494933E-001 cutoff=3.01000000 nneightol=1.20000000 pbc="T T T" Lattice="15.00000000       0.00000000       0.00000000       0.00000000      15.00000000       0.00000000       0.00000000       0.00000000      15.00000000" Properties=species:S:1:pos:R:3:Z:I:1:map_shift:I:3:n_neighb:I:1
 O               0.00000000      0.00000000      0.00000000       8       0       0       0       2
 H               0.70000000      0.00000000      0.00000000       1       0       0       0       2
 H              -0.19134000      0.74834000      0.00000000       1       0       0       0       2
 3
 energy=-.21332876273079449E-001 cutoff=3.01000000 nneightol=1.20000000 pbc="T T T" Lattice="15.00000000       0.00000000       0.00000000       0.00000000      15.00000000       0.00000000       0.00000000       0.00000000      15.00000000" Properties=species:S:1:pos:R:3:Z:I:1:map_shift:I:3:n_neighb:I:1
 O               0.00000000      0.00000000      0.00000000       8       0       0       0       2
 H               0.70000000      0.00000000      0.00000000       1       0       0       0       2
 H              -0.19732000      0.77172000      0.00000000       1       0       0       0       2
 3
 energy=-.17676938474450177E-001 cutoff=3.01000000 nneightol=1.20000000 pbc="T T T" Lattice="15.00000000       0.00000000       0.00000000       0.00000000      15.00000000       0.00000000       0.00000000       0.00000000      15.00000000" Properties=species:S:1:pos:R:3:Z:I:1:map_shift:I:3:n_neighb:I:1
 O               0.00000000      0.00000000      0.00000000       8       0       0       0       2
 H               0.70000000      0.00000000      0.00000000       1       0       0       0       2
 H              -0.20330000      0.79511000      0.00000000       1       0       0       0       2
 3
 energy=-.14330131928419920E-001 cutoff=3.01000000 nneightol=1.20000000 pbc="T T T" Lattice="15.00000000       0.00000000       0.00000000       0.00000000      15.00000000       0.00000000       0.00000000       0.00000000      15.00000000" Properties=species:S:1:pos:R:3:Z:I:1:map_shift:I:3:n_neighb:I:1
 O               0.00000000      0.00000000      0.00000000       8       0       0       0       2
 H               0.70000000      0.00000000      0.00000000       1       0       0       0       2
 H              -0.20928000      0.81850000      0.00000000       1       0       0       0       2
 3
 energy=-.11216337116762953E-001 cutoff=3.01000000 nneightol=1.20000000 pbc="T T T" Lattice="15.00000000       0.00000000       0.00000000       0.00000000      15.00000000       0.00000000       0.00000000       0.00000000      15.00000000" Properties=species:S:1:pos:R:3:Z:I:1:map_shift:I:3:n_neighb:I:1
 O               0.00000000      0.00000000      0.00000000       8       0       0       0       2
 H               0.70000000      0.00000000      0.00000000       1       0       0       0       2
 H              -0.21526000      0.84189000      0.00000000       1       0       0       0       2
 3
 energy=-.82550662998810420E-002 cutoff=3.01000000 nneightol=1.20000000 pbc="T T T" Lattice="15.00000000       0.00000000       0.00000000       0.00000000      15.00000000       0.00000000       0.00000000       0.00000000      15.00000000" Properties=species:S:1:pos:R:3:Z:I:1:map_shift:I:3:n_neighb:I:1
 O               0.00000000      0.00000000      0.00000000       8       0       0       0       2
 H               0.70000000      0.00000000      0.00000000       1       0       0       0       2
 H              -0.22124000      0.86526000      0.00000000       1       0       0       0       2
 3
 energy=-.53498647065675087E-002 cutoff=3.01000000 nneightol=1.20000000 pbc="T T T" Lattice="15.00000000       0.00000000       0.00000000       0.00000000      15.00000000       0.00000000       0.00000000       0.00000000      15.00000000" Properties=species:S:1:pos:R:3:Z:I:1:map_shift:I:3:n_neighb:I:1
 O               0.00000000      0.00000000      0.00000000       8       0       0       0       2
 H               0.70000000      0.00000000      0.00000000       1       0       0       0       2
 H              -0.22722000      0.88865000      0.00000000       1       0       0       0       2
 3
 energy=-.24268999399694735E-002 cutoff=3.01000000 nneightol=1.20000000 pbc="T T T" Lattice="15.00000000       0.00000000       0.00000000       0.00000000      15.00000000       0.00000000       0.00000000       0.00000000      15.00000000" Properties=species:S:1:pos:R:3:Z:I:1:map_shift:I:3:n_neighb:I:1
 O               0.00000000      0.00000000      0.00000000       8       0       0       0       2
 H               0.70000000      0.00000000      0.00000000       1       0       0       0       2
 H              -0.23319000      0.91204000      0.00000000       1       0       0       0       2
 3
 energy=.56630220768350004E-003 cutoff=3.01000000 nneightol=1.20000000 pbc="T T T" Lattice="15.00000000       0.00000000       0.00000000       0.00000000      15.00000000       0.00000000       0.00000000       0.00000000      15.00000000" Properties=species:S:1:pos:R:3:Z:I:1:map_shift:I:3:n_neighb:I:1
 O               0.00000000      0.00000000      0.00000000       8       0       0       0       2
 H               0.70000000      0.00000000      0.00000000       1       0       0       0       2
 H              -0.23917000      0.93543000      0.00000000       1       0       0       0       2
 3
 energy=.36805865822471251E-002 cutoff=3.01000000 nneightol=1.20000000 pbc="T T T" Lattice="15.00000000       0.00000000       0.00000000       0.00000000      15.00000000       0.00000000       0.00000000       0.00000000      15.00000000" Properties=species:S:1:pos:R:3:Z:I:1:map_shift:I:3:n_neighb:I:1
 O               0.00000000      0.00000000      0.00000000       8       0       0       0       2
 H               0.70000000      0.00000000      0.00000000       1       0       0       0       2
 H              -0.24515000      0.95881000      0.00000000       1       0       0       0       2
 3
 energy=.69539480020892608E-002 cutoff=3.01000000 nneightol=1.20000000 pbc="T T T" Lattice="15.00000000       0.00000000       0.00000000       0.00000000      15.00000000       0.00000000       0.00000000       0.00000000      15.00000000" Properties=species:S:1:pos:R:3:Z:I:1:map_shift:I:3:n_neighb:I:1
 O               0.00000000      0.00000000      0.00000000       8       0       0       0       2
 H               0.70000000      0.00000000      0.00000000       1       0       0       0       2
 H              -0.25113000      0.98219000      0.00000000       1       0       0       0       2
 3
 energy=.10414684408694752E-001 cutoff=3.01000000 nneightol=1.20000000 pbc="T T T" Lattice="15.00000000       0.00000000       0.00000000       0.00000000      15.00000000       0.00000000       0.00000000       0.00000000      15.00000000" Properties=species:S:1:pos:R:3:Z:I:1:map_shift:I:3:n_neighb:I:1
 O               0.00000000      0.00000000      0.00000000       8       0       0       0       2
 H               0.70000000      0.00000000      0.00000000       1       0       0       0       2
 H              -0.25711000      1.00558000      0.00000000       1       0       0       0       2
 3
 energy=.14079489611390494E-001 cutoff=3.01000000 nneightol=1.20000000 pbc="T T T" Lattice="15.00000000       0.00000000       0.00000000       0.00000000      15.00000000       0.00000000       0.00000000       0.00000000      15.00000000" Properties=species:S:1:pos:R:3:Z:I:1:map_shift:I:3:n_neighb:I:1
 O               0.00000000      0.00000000      0.00000000       8       0       0       0       2
 H               0.70000000      0.00000000      0.00000000       1       0       0       0       2
 H              -0.26309000      1.02897000      0.00000000       1       0       0       0       2
 3
 energy=.17958745295936440E-001 cutoff=3.01000000 nneightol=1.20000000 pbc="T T T" Lattice="15.00000000       0.00000000       0.00000000       0.00000000      15.00000000       0.00000000       0.00000000       0.00000000      15.00000000" Properties=species:S:1:pos:R:3:Z:I:1:map_shift:I:3:n_neighb:I:1
 O               0.00000000      0.00000000      0.00000000       8       0       0       0       2
 H               0.70000000      0.00000000      0.00000000       1       0       0       0       2
 H              -0.26907000      1.05236000      0.00000000       1       0       0       0       2
 3
 energy=.22047388726861294E-001 cutoff=3.01000000 nneightol=1.20000000 pbc="T T T" Lattice="15.00000000       0.00000000       0.00000000       0.00000000      15.00000000       0.00000000       0.00000000       0.00000000      15.00000000" Properties=species:S:1:pos:R:3:Z:I:1:map_shift:I:3:n_neighb:I:1
 O               0.00000000      0.00000000      0.00000000       8       0       0       0       2
 H               0.70000000      0.00000000      0.00000000       1       0       0       0       2
 H              -0.27505000      1.07573000      0.00000000       1       0       0       0       2
 3
 energy=.26334640631744621E-001 cutoff=3.01000000 nneightol=1.20000000 pbc="T T T" Lattice="15.00000000       0.00000000       0.00000000       0.00000000      15.00000000       0.00000000       0.00000000       0.00000000      15.00000000" Properties=species:S:1:pos:R:3:Z:I:1:map_shift:I:3:n_neighb:I:1
 O               0.00000000      0.00000000      0.00000000       8       0       0       0       2
 H               0.70000000      0.00000000      0.00000000       1       0       0       0       2
 H              -0.28103000      1.09912000      0.00000000       1       0       0       0       2
 3
 energy=.30778028015586933E-001 cutoff=3.01000000 nneightol=1.20000000 pbc="T T T" Lattice="15.00000000       0.00000000       0.00000000       0.00000000      15.00000000       0.00000000       0.00000000       0.00000000      15.00000000" Properties=species:S:1:pos:R:3:Z:I:1:map_shift:I:3:n_neighb:I:1
 O               0.00000000      0.00000000      0.00000000       8       0       0       0       2
 H               0.70000000      0.00000000      0.00000000       1       0       0       0       2
 H              -0.28701000      1.12251000      0.00000000       1       0       0       0       2
 3
 energy=.35317189414564965E-001 cutoff=3.01000000 nneightol=1.20000000 pbc="T T T" Lattice="15.00000000       0.00000000       0.00000000       0.00000000      15.00000000       0.00000000       0.00000000       0.00000000      15.00000000" Properties=species:S:1:pos:R:3:Z:I:1:map_shift:I:3:n_neighb:I:1
 O               0.00000000      0.00000000      0.00000000       8       0       0       0       2
 H               0.70000000      0.00000000      0.00000000       1       0       0       0       2
 H              -0.29299000      1.14590000      0.00000000       1       0       0       0       2
 3
 energy=.39872825843035642E-001 cutoff=3.01000000 nneightol=1.20000000 pbc="T T T" Lattice="15.00000000       0.00000000       0.00000000       0.00000000      15.00000000       0.00000000       0.00000000       0.00000000      15.00000000" Properties=species:S:1:pos:R:3:Z:I:1:map_shift:I:3:n_neighb:I:1
 O               0.00000000      0.00000000      0.00000000       8       0       0       0       2
 H               0.70000000      0.00000000      0.00000000       1       0       0       0       2
 H              -0.29897000      1.16928000      0.00000000       1       0       0       0       2
 3
 energy=.44361564321732549E-001 cutoff=3.01000000 nneightol=1.20000000 pbc="T T T" Lattice="15.00000000       0.00000000       0.00000000       0.00000000      15.00000000       0.00000000       0.00000000       0.00000000      15.00000000" Properties=species:S:1:pos:R:3:Z:I:1:map_shift:I:3:n_neighb:I:1
 O               0.00000000      0.00000000      0.00000000       8       0       0       0       2
 H               0.70000000      0.00000000      0.00000000       1       0       0       0       2
 H              -0.30495000      1.19266000      0.00000000       1       0       0       0       2
 3
 energy=.48707121018382704E-001 cutoff=3.01000000 nneightol=1.20000000 pbc="T T T" Lattice="15.00000000       0.00000000       0.00000000       0.00000000      15.00000000       0.00000000       0.00000000       0.00000000      15.00000000" Properties=species:S:1:pos:R:3:Z:I:1:map_shift:I:3:n_neighb:I:1
 O               0.00000000      0.00000000      0.00000000       8       0       0       0       2
 H               0.70000000      0.00000000      0.00000000       1       0       0       0       2
 H              -0.31093000      1.21605000      0.00000000       1       0       0       0       2
 3
 energy=.52855820095875972E-001 cutoff=3.01000000 nneightol=1.20000000 pbc="T T T" Lattice="15.00000000       0.00000000       0.00000000       0.00000000      15.00000000       0.00000000       0.00000000       0.00000000      15.00000000" Properties=species:S:1:pos:R:3:Z:I:1:map_shift:I:3:n_neighb:I:1
 O               0.00000000      0.00000000      0.00000000       8       0       0       0       2
 H               0.70000000      0.00000000      0.00000000       1       0       0       0       2
 H              -0.31691000      1.23944000      0.00000000       1       0       0       0       2
 3
 energy=.56798415552931081E-001 cutoff=3.01000000 nneightol=1.20000000 pbc="T T T" Lattice="15.00000000       0.00000000       0.00000000       0.00000000      15.00000000       0.00000000       0.00000000       0.00000000      15.00000000" Properties=species:S:1:pos:R:3:Z:I:1:map_shift:I:3:n_neighb:I:1
 O               0.00000000      0.00000000      0.00000000       8       0       0       0       2
 H               0.70000000      0.00000000      0.00000000       1       0       0       0       2
 H              -0.32289000      1.26282000      0.00000000       1       0       0       0       2
 3
 energy=.60588528472791392E-001 cutoff=3.01000000 nneightol=1.20000000 pbc="T T T" Lattice="15.00000000       0.00000000       0.00000000       0.00000000      15.00000000       0.00000000       0.00000000       0.00000000      15.00000000" Properties=species:S:1:pos:R:3:Z:I:1:map_shift:I:3:n_neighb:I:1
 O               0.00000000      0.00000000      0.00000000       8       0       0       0       2
 H               0.70000000      0.00000000      0.00000000       1       0       0       0       2
 H              -0.32887000      1.28621000      0.00000000       1       0       0       0       2
 3
 energy=.64343412970051528E-001 cutoff=3.01000000 nneightol=1.20000000 pbc="T T T" Lattice="15.00000000       0.00000000       0.00000000       0.00000000      15.00000000       0.00000000       0.00000000       0.00000000      15.00000000" Properties=species:S:1:pos:R:3:Z:I:1:map_shift:I:3:n_neighb:I:1
 O               0.00000000      0.00000000      0.00000000       8       0       0       0       2
 H               0.70000000      0.00000000      0.00000000       1       0       0       0       2
 H              -0.33484000      1.30959000      0.00000000       1       0       0       0       2
 3
 energy=.68267548626231189E-001 cutoff=3.01000000 nneightol=1.20000000 pbc="T T T" Lattice="15.00000000       0.00000000       0.00000000       0.00000000      15.00000000       0.00000000       0.00000000       0.00000000      15.00000000" Properties=species:S:1:pos:R:3:Z:I:1:map_shift:I:3:n_neighb:I:1
 O               0.00000000      0.00000000      0.00000000       8       0       0       0       2
 H               0.70000000      0.00000000      0.00000000       1       0       0       0       2
 H              -0.34082000      1.33298000      0.00000000       1       0       0       0       2
 3
 energy=.72626586946272997E-001 cutoff=3.01000000 nneightol=1.20000000 pbc="T T T" Lattice="15.00000000       0.00000000       0.00000000       0.00000000      15.00000000       0.00000000       0.00000000       0.00000000      15.00000000" Properties=species:S:1:pos:R:3:Z:I:1:map_shift:I:3:n_neighb:I:1
 O               0.00000000      0.00000000      0.00000000       8       0       0       0       2
 H               0.70000000      0.00000000      0.00000000       1       0       0       0       2
 H              -0.34680000      1.35637000      0.00000000       1       0       0       0       2
 3
 energy=-.34511499165056136E-001 cutoff=3.01000000 nneightol=1.20000000 pbc="T T T" Lattice="15.00000000       0.00000000       0.00000000       0.00000000      15.00000000       0.00000000       0.00000000       0.00000000      15.00000000" Properties=species:S:1:pos:R:3:Z:I:1:map_shift:I:3:n_neighb:I:1
 O               0.00000000      0.00000000      0.00000000       8       0       0       0       2
 H               0.72414000      0.00000000      0.00000000       1       0       0       0       2
 H              -0.17340000      0.67818000      0.00000000       1       0       0       0       2
 3
 energy=-.30482191935489733E-001 cutoff=3.01000000 nneightol=1.20000000 pbc="T T T" Lattice="15.00000000       0.00000000       0.00000000       0.00000000      15.00000000       0.00000000       0.00000000       0.00000000      15.00000000" Properties=species:S:1:pos:R:3:Z:I:1:map_shift:I:3:n_neighb:I:1
 O               0.00000000      0.00000000      0.00000000       8       0       0       0       2
 H               0.72414000      0.00000000      0.00000000       1       0       0       0       2
 H              -0.17938000      0.70157000      0.00000000       1       0       0       0       2
 3
 energy=-.26621606828180155E-001 cutoff=3.01000000 nneightol=1.20000000 pbc="T T T" Lattice="15.00000000       0.00000000       0.00000000       0.00000000      15.00000000       0.00000000       0.00000000       0.00000000      15.00000000" Properties=species:S:1:pos:R:3:Z:I:1:map_shift:I:3:n_neighb:I:1
 O               0.00000000      0.00000000      0.00000000       8       0       0       0       2
 H               0.72414000      0.00000000      0.00000000       1       0       0       0       2
 H              -0.18536000      0.72496000      0.00000000       1       0       0       0       2
 3
 energy=-.22991114193043005E-001 cutoff=3.01000000 nneightol=1.20000000 pbc="T T T" Lattice="15.00000000       0.00000000       0.00000000       0.00000000      15.00000000       0.00000000       0.00000000       0.00000000      15.00000000" Properties=species:S:1:pos:R:3:Z:I:1:map_shift:I:3:n_neighb:I:1
 O               0.00000000      0.00000000      0.00000000       8       0       0       0       2
 H               0.72414000      0.00000000      0.00000000       1       0       0       0       2
 H              -0.19134000      0.74834000      0.00000000       1       0       0       0       2
 3
 energy=-.19610011067592525E-001 cutoff=3.01000000 nneightol=1.20000000 pbc="T T T" Lattice="15.00000000       0.00000000       0.00000000       0.00000000      15.00000000       0.00000000       0.00000000       0.00000000      15.00000000" Properties=species:S:1:pos:R:3:Z:I:1:map_shift:I:3:n_neighb:I:1
 O               0.00000000      0.00000000      0.00000000       8       0       0       0       2
 H               0.72414000      0.00000000      0.00000000       1       0       0       0       2
 H              -0.19732000      0.77172000      0.00000000       1       0       0       0       2
 3
 energy=-.16465874592945684E-001 cutoff=3.01000000 nneightol=1.20000000 pbc="T T T" Lattice="15.00000000       0.00000000       0.00000000       0.00000000      15.00000000       0.00000000       0.00000000       0.00000000      15.00000000" Properties=species:S:1:pos:R:3:Z:I:1:map_shift:I:3:n_neighb:I:1
 O               0.00000000      0.00000000      0.00000000       8       0       0       0       2
 H               0.72414000      0.00000000      0.00000000       1       0       0       0       2
 H              -0.20330000      0.79511000      0.00000000       1       0       0       0       2
 3
 energy=-.13526216203071151E-001 cutoff=3.01000000 nneightol=1.20000000 pbc="T T T" Lattice="15.00000000       0.00000000       0.00000000       0.00000000      15.00000000       0.00000000       0.00000000       0.00000000      15.00000000" Properties=species:S:1:pos:R:3:Z:I:1:map_shift:I:3:n_neighb:I:1
 O               0.00000000      0.00000000      0.00000000       8       0       0       0       2
 H               0.72414000      0.00000000      0.00000000       1       0       0       0       2
 H              -0.20928000      0.81850000      0.00000000       1       0       0       0       2
 3
 energy=-.10736178159788001E-001 cutoff=3.01000000 nneightol=1.20000000 pbc="T T T" Lattice="15.00000000       0.00000000       0.00000000       0.00000000      15.00000000       0.00000000       0.00000000       0.00000000      15.00000000" Properties=species:S:1:pos:R:3:Z:I:1:map_shift:I:3:n_neighb:I:1
 O               0.00000000      0.00000000      0.00000000       8       0       0       0       2
 H               0.72414000      0.00000000      0.00000000       1       0       0       0       2
 H              -0.21526000      0.84189000      0.00000000       1       0       0       0       2
 3
 energy=-.80381486958469583E-002 cutoff=3.01000000 nneightol=1.20000000 pbc="T T T" Lattice="15.00000000       0.00000000       0.00000000       0.00000000      15.00000000       0.00000000       0.00000000       0.00000000      15.00000000" Properties=species:S:1:pos:R:3:Z:I:1:map_shift:I:3:n_neighb:I:1
 O               0.00000000      0.00000000      0.00000000       8       0       0       0       2
 H               0.72414000      0.00000000      0.00000000       1       0       0       0       2
 H              -0.22124000      0.86526000      0.00000000       1       0       0       0       2
 3
 energy=-.53599510144414220E-002 cutoff=3.01000000 nneightol=1.20000000 pbc="T T T" Lattice="15.00000000       0.00000000       0.00000000       0.00000000      15.00000000       0.00000000       0.00000000       0.00000000      15.00000000" Properties=species:S:1:pos:R:3:Z:I:1:map_shift:I:3:n_neighb:I:1
 O               0.00000000      0.00000000      0.00000000       8       0       0       0       2
 H               0.72414000      0.00000000      0.00000000       1       0       0       0       2
 H              -0.22722000      0.88865000      0.00000000       1       0       0       0       2
 3
 energy=-.26492181055940422E-002 cutoff=3.01000000 nneightol=1.20000000 pbc="T T T" Lattice="15.00000000       0.00000000       0.00000000       0.00000000      15.00000000       0.00000000       0.00000000       0.00000000      15.00000000" Properties=species:S:1:pos:R:3:Z:I:1:map_shift:I:3:n_neighb:I:1
 O               0.00000000      0.00000000      0.00000000       8       0       0       0       2
 H               0.72414000      0.00000000      0.00000000       1       0       0       0       2
 H              -0.23319000      0.91204000      0.00000000       1       0       0       0       2
 3
 energy=.12911409350024883E-003 cutoff=3.01000000 nneightol=1.20000000 pbc="T T T" Lattice="15.00000000       0.00000000       0.00000000       0.00000000      15.00000000       0.00000000       0.00000000       0.00000000      15.00000000" Properties=species:S:1:pos:R:3:Z:I:1:map_shift:I:3:n_neighb:I:1
 O               0.00000000      0.00000000      0.00000000       8       0       0       0       2
 H               0.72414000      0.00000000      0.00000000       1       0       0       0       2
 H              -0.23917000      0.93543000      0.00000000       1       0       0       0       2
 3
 energy=.30119998775501866E-002 cutoff=3.01000000 nneightol=1.20000000 pbc="T T T" Lattice="15.00000000       0.00000000       0.00000000       0.00000000      15.00000000       0.00000000       0.00000000       0.00000000      15.00000000" Properties=species:S:1:pos:R:3:Z:I:1:map_shift:I:3:n_neighb:I:1
 O               0.00000000      0.00000000      0.00000000       8       0       0       0       2
 H               0.72414000      0.00000000      0.00000000       1       0       0       0       2
 H              -0.24515000      0.95881000      0.00000000       1       0       0       0       2
 3
 energy=.60285262793184913E-002 cutoff=3.01000000 nneightol=1.20000000 pbc="T T T" Lattice="15.00000000       0.00000000       0.00000000       0.00000000      15.00000000       0.00000000       0.00000000       0.00000000      15.00000000" Properties=species:S:1:pos:R:3:Z:I:1:map_shift:I:3:n_neighb:I:1
 O               0.00000000      0.00000000      0.00000000       8       0       0       0       2
 H               0.72414000      0.00000000      0.00000000       1       0       0       0       2
 H              -0.25113000      0.98219000      0.00000000       1       0       0       0       2
 3
 energy=.92027382935591096E-002 cutoff=3.01000000 nneightol=1.20000000 pbc="T T T" Lattice="15.00000000       0.00000000       0.00000000       0.00000000      15.00000000       0.00000000       0.00000000       0.00000000      15.00000000" Properties=species:S:1:pos:R:3:Z:I:1:map_shift:I:3:n_neighb:I:1
 O               0.00000000      0.00000000      0.00000000       8       0       0       0       2
 H               0.72414000      0.00000000      0.00000000       1       0       0       0       2
 H              -0.25711000      1.00558000      0.00000000       1       0       0       0       2
 3
 energy=.12551256572981506E-001 cutoff=3.01000000 nneightol=1.20000000 pbc="T T T" Lattice="15.00000000       0.00000000       0.00000000       0.00000000      15.00000000       0.00000000       0.00000000       0.00000000      15.00000000" Properties=species:S:1:pos:R:3:Z:I:1:map_shift:I:3:n_neighb:I:1
 O               0.00000000      0.00000000      0.00000000       8       0       0       0       2
 H               0.72414000      0.00000000      0.00000000       1       0       0       0       2
 H              -0.26309000      1.02897000      0.00000000       1       0       0       0       2
 3
 energy=.16086816053228148E-001 cutoff=3.01000000 nneightol=1.20000000 pbc="T T T" Lattice="15.00000000       0.00000000       0.00000000       0.00000000      15.00000000       0.00000000       0.00000000       0.00000000      15.00000000" Properties=species:S:1:pos:R:3:Z:I:1:map_shift:I:3:n_neighb:I:1
 O               0.00000000      0.00000000      0.00000000       8       0       0       0       2
 H               0.72414000      0.00000000      0.00000000       1       0       0       0       2
 H              -0.26907000      1.05236000      0.00000000       1       0       0       0       2
 3
 energy=.19808481801424360E-001 cutoff=3.01000000 nneightol=1.20000000 pbc="T T T" Lattice="15.00000000       0.00000000       0.00000000       0.00000000      15.00000000       0.00000000       0.00000000       0.00000000      15.00000000" Properties=species:S:1:pos:R:3:Z:I:1:map_shift:I:3:n_neighb:I:1
 O               0.00000000      0.00000000      0.00000000       8       0       0       0       2
 H               0.72414000      0.00000000      0.00000000       1       0       0       0       2
 H              -0.27505000      1.07573000      0.00000000       1       0       0       0       2
 3
 energy=.23708727953320796E-001 cutoff=3.01000000 nneightol=1.20000000 pbc="T T T" Lattice="15.00000000       0.00000000       0.00000000       0.00000000      15.00000000       0.00000000       0.00000000       0.00000000      15.00000000" Properties=species:S:1:pos:R:3:Z:I:1:map_shift:I:3:n_neighb:I:1
 O               0.00000000      0.00000000      0.00000000       8       0       0       0       2
 H               0.72414000      0.00000000      0.00000000       1       0       0       0       2
 H              -0.28103000      1.09912000      0.00000000       1       0       0       0       2
 3