       3
Lattice="15.0 0.0 0.0 0.0 15.0 0.0 0.0 0.0 15.0" Properties=species:S:1:pos:R:3:forces:R:3 energy=        0.9643667143 pbc="T T T"
       O     0.0000000000     0.0000000000     0.0000000000      6.589959211     -4.683290376     -0.000000000
       H     1.1827600000     0.0000000000     0.0000000000     -5.760350424      0.226712116     -0.000000000
       H    -0.2212400000     0.8652600000     0.0000000000     -0.829608838      4.456578208     -0.000000000
