       3
Lattice="15.0 0.0 0.0 0.0 15.0 0.0 0.0 0.0 15.0" Properties=species:S:1:pos:R:3:forces:R:3 energy=        5.6657593308 pbc="T T T"
       O     0.0000000000     0.0000000000     0.0000000000     14.731720707    -36.441982530     -0.000000000
       H     1.4000000000     0.0000000000     0.0000000000     -6.097912569      0.294752640     -0.000000000
       H    -0.1734000000     0.6781800000     0.0000000000     -8.633808138     36.147229942     -0.000000000
