       3
Lattice="15.0 0.0 0.0 0.0 15.0 0.0 0.0 0.0 15.0" Properties=species:S:1:pos:R:3:forces:R:3 energy=        0.9392319407 pbc="T T T"
       O     0.0000000000     0.0000000000     0.0000000000      6.966593761    -11.738376150     -0.000000000
       H     1.0620700000     0.0000000000     0.0000000000     -3.938755216     -0.016637668     -0.000000000
       H    -0.2033000000     0.7951100000     0.0000000000     -3.027838544     11.755013818     -0.000000000
