       3
Lattice="15.0 0.0 0.0 0.0 15.0 0.0 0.0 0.0 15.0" Properties=species:S:1:pos:R:3:forces:R:3 energy=        2.4199053950 pbc="T T T"
       O     0.0000000000     0.0000000000     0.0000000000     -8.665220657      5.122302077     -0.000000000
       H     0.8689700000     0.0000000000     0.0000000000      6.839454912      0.575766429     -0.000000000
       H    -0.3468000000     1.3563700000     0.0000000000      1.825765745     -5.698068506     -0.000000000
