       3
Lattice="15.0 0.0 0.0 0.0 15.0 0.0 0.0 0.0 15.0" Properties=species:S:1:pos:R:3:forces:R:3 energy=        1.8740996378 pbc="T T T"
       O     0.0000000000     0.0000000000     0.0000000000    -11.101717896      5.508457940     -0.000000000
       H     0.8448300000     0.0000000000     0.0000000000      9.297010884      0.422762990     -0.000000000
       H    -0.3169100000     1.2394400000     0.0000000000      1.804707012     -5.931220930     -0.000000000
