       3
Lattice="15.0 0.0 0.0 0.0 15.0 0.0 0.0 0.0 15.0" Properties=species:S:1:pos:R:3:forces:R:3 energy=        2.2517230102 pbc="T T T"
       O     0.0000000000     0.0000000000     0.0000000000    -22.254977179     -5.355298178     -0.000000000
       H     0.7482800000     0.0000000000     0.0000000000     24.467182380     -0.736504881     -0.000000000
       H    -0.2152600000     0.8418900000     0.0000000000     -2.212205149      6.091803059     -0.000000000
