       3
Lattice="15.0 0.0 0.0 0.0 15.0 0.0 0.0 0.0 15.0" Properties=species:S:1:pos:R:3:forces:R:3 energy=        3.4411338134 pbc="T T T"
       O     0.0000000000     0.0000000000     0.0000000000    -12.521278615    -22.373814343     -0.000000000
       H     0.7724100000     0.0000000000     0.0000000000     19.578501542     -1.011719030     -0.000000000
       H    -0.1853600000     0.7249600000     0.0000000000     -7.057222927     23.385533322     -0.000000000
