       3
Lattice="15.0 0.0 0.0 0.0 15.0 0.0 0.0 0.0 15.0" Properties=species:S:1:pos:R:3:forces:R:3 energy=        2.1370013606 pbc="T T T"
       O     0.0000000000     0.0000000000     0.0000000000     -6.500406823      5.208200875     -0.000000000
       H     0.8931000000     0.0000000000     0.0000000000      4.657492223      0.552312403     -0.000000000
       H    -0.3408200000     1.3329800000     0.0000000000      1.842914600     -5.760513278     -0.000000000
