       3
Lattice="15.0 0.0 0.0 0.0 15.0 0.0 0.0 0.0 15.0" Properties=species:S:1:pos:R:3:forces:R:3 energy=        0.8668982481 pbc="T T T"
       O     0.0000000000     0.0000000000     0.0000000000      2.672829862      4.504192542     -0.000000000
       H     1.0862100000     0.0000000000     0.0000000000     -4.287859460      0.372500831     -0.000000000
       H    -0.2810300000     1.0991200000     0.0000000000      1.615029546     -4.876693372     -0.000000000
