       3
Lattice="15.0 0.0 0.0 0.0 15.0 0.0 0.0 0.0 15.0" Properties=species:S:1:pos:R:3:forces:R:3 energy=        1.6989023427 pbc="T T T"
       O     0.0000000000     0.0000000000     0.0000000000      8.957875070    -19.033644776     -0.000000000
       H     1.0620700000     0.0000000000     0.0000000000     -3.966840058     -0.074272263     -0.000000000
       H    -0.1913400000     0.7483400000     0.0000000000     -4.991035012     19.107917039     -0.000000000
