       3
Lattice="15.0 0.0 0.0 0.0 15.0 0.0 0.0 0.0 15.0" Properties=species:S:1:pos:R:3:forces:R:3 energy=        3.2159303882 pbc="T T T"
       O     0.0000000000     0.0000000000     0.0000000000    -17.687660580      5.177266581     -0.000000000
       H     0.7965500000     0.0000000000     0.0000000000     15.875811657      0.579054100     -0.000000000
       H    -0.3468000000     1.3563700000     0.0000000000      1.811848923     -5.756320681     -0.000000000
