       3
Lattice="15.0 0.0 0.0 0.0 15.0 0.0 0.0 0.0 15.0" Properties=species:S:1:pos:R:3:forces:R:3 energy=        3.0189941373 pbc="T T T"
       O     0.0000000000     0.0000000000     0.0000000000      3.840594771      4.816300290     -0.000000000
       H     1.4000000000     0.0000000000     0.0000000000     -5.747796236      0.465060125     -0.000000000
       H    -0.2989700000     1.1692800000     0.0000000000      1.907201465     -5.281360415     -0.000000000
