       3
Lattice="15.0 0.0 0.0 0.0 15.0 0.0 0.0 0.0 15.0" Properties=species:S:1:pos:R:3:forces:R:3 energy=        0.2896871227 pbc="T T T"
       O     0.0000000000     0.0000000000     0.0000000000      3.237668018     -6.252956076     -0.000000000
       H     0.9896600000     0.0000000000     0.0000000000     -1.512661848     -0.088183532     -0.000000000
       H    -0.2152600000     0.8418900000     0.0000000000     -1.725006170      6.341139660     -0.000000000
