       3
Lattice="15.0 0.0 0.0 0.0 15.0 0.0 0.0 0.0 15.0" Properties=species:S:1:pos:R:3:forces:R:3 energy=        4.1000614465 pbc="T T T"
       O     0.0000000000     0.0000000000     0.0000000000     13.452266099    -29.747519599     -0.000000000
       H     1.2793100000     0.0000000000     0.0000000000     -6.282153435      0.209622397     -0.000000000
       H    -0.1793800000     0.7015700000     0.0000000000     -7.170112664     29.537897150     -0.000000000
