       3
Lattice="15.0 0.0 0.0 0.0 15.0 0.0 0.0 0.0 15.0" Properties=species:S:1:pos:R:3:forces:R:3 energy=        0.8311720303 pbc="T T T"
       O     0.0000000000     0.0000000000     0.0000000000      6.726933408     -6.644279345     -0.000000000
       H     1.1344800000     0.0000000000     0.0000000000     -5.266335447      0.148609936     -0.000000000
       H    -0.2152600000     0.8418900000     0.0000000000     -1.460597961      6.495669460     -0.000000000
