       3
Lattice="15.0 0.0 0.0 0.0 15.0 0.0 0.0 0.0 15.0" Properties=species:S:1:pos:R:3:forces:R:3 energy=        3.5881323464 pbc="T T T"
       O     0.0000000000     0.0000000000     0.0000000000     11.986232411    -24.320562633     -0.000000000
       H     1.3034500000     0.0000000000     0.0000000000     -6.271329394      0.245151100     -0.000000000
       H    -0.1853600000     0.7249600000     0.0000000000     -5.714903069     24.075411585     -0.000000000
