       3
Lattice="15.0 0.0 0.0 0.0 15.0 0.0 0.0 0.0 15.0" Properties=species:S:1:pos:R:3:forces:R:3 energy=        0.7820309339 pbc="T T T"
       O     0.0000000000     0.0000000000     0.0000000000      5.616462990    -11.589732533     -0.000000000
       H     1.0137900000     0.0000000000     0.0000000000     -2.483603522     -0.110735666     -0.000000000
       H    -0.2033000000     0.7951100000     0.0000000000     -3.132859468     11.700468250     -0.000000000
