       3
Lattice="15.0 0.0 0.0 0.0 15.0 0.0 0.0 0.0 15.0" Properties=species:S:1:pos:R:3:forces:R:3 energy=        3.1552845355 pbc="T T T"
       O     0.0000000000     0.0000000000     0.0000000000      3.933496896      5.028298953     -0.000000000
       H     1.2793100000     0.0000000000     0.0000000000     -5.853616156      0.514755973     -0.000000000
       H    -0.3348400000     1.3095900000     0.0000000000      1.920119259     -5.543054926     -0.000000000
