       3
Lattice="15.0 0.0 0.0 0.0 15.0 0.0 0.0 0.0 15.0" Properties=species:S:1:pos:R:3:forces:R:3 energy=        2.0925883731 pbc="T T T"
       O     0.0000000000     0.0000000000     0.0000000000      4.347607297      3.889087702     -0.000000000
       H     1.3275900000     0.0000000000     0.0000000000     -5.995416778      0.438591634     -0.000000000
       H    -0.2750500000     1.0757300000     0.0000000000      1.647809481     -4.327679336     -0.000000000
