       3
Lattice="15.0 0.0 0.0 0.0 15.0 0.0 0.0 0.0 15.0" Properties=species:S:1:pos:R:3:forces:R:3 energy=        2.9001295024 pbc="T T T"
       O     0.0000000000     0.0000000000     0.0000000000     10.794267446    -19.610198837     -0.000000000
       H     1.2793100000     0.0000000000     0.0000000000     -6.245167738      0.236590711     -0.000000000
       H    -0.1913400000     0.7483400000     0.0000000000     -4.549099759     19.373608126     -0.000000000
