       3
Lattice="15.0 0.0 0.0 0.0 15.0 0.0 0.0 0.0 15.0" Properties=species:S:1:pos:R:3:forces:R:3 energy=        0.7848635249 pbc="T T T"
       O     0.0000000000     0.0000000000     0.0000000000    -10.328442520      4.252236963     -0.000000000
       H     0.8448300000     0.0000000000     0.0000000000      9.169209822      0.068031885     -0.000000000
       H    -0.2690700000     1.0523600000     0.0000000000      1.159232698     -4.320268847     -0.000000000
