       3
Lattice="15.0 0.0 0.0 0.0 15.0 0.0 0.0 0.0 15.0" Properties=species:S:1:pos:R:3:forces:R:3 energy=        0.8221932389 pbc="T T T"
       O     0.0000000000     0.0000000000     0.0000000000      5.320222041     -0.175961704     -0.000000000
       H     1.1827600000     0.0000000000     0.0000000000     -5.712220379      0.287476723     -0.000000000
       H    -0.2391700000     0.9354300000     0.0000000000      0.391998338     -0.111515019     -0.000000000
