       3
Lattice="15.0 0.0 0.0 0.0 15.0 0.0 0.0 0.0 15.0" Properties=species:S:1:pos:R:3:forces:R:3 energy=        2.0264031856 pbc="T T T"
       O     0.0000000000     0.0000000000     0.0000000000    -17.390217433      5.496812020     -0.000000000
       H     0.7965500000     0.0000000000     0.0000000000     15.734855076      0.266722871     -0.000000000
       H    -0.2989700000     1.1692800000     0.0000000000      1.655362357     -5.763534891     -0.000000000
