       3
Lattice="15.0 0.0 0.0 0.0 15.0 0.0 0.0 0.0 15.0" Properties=species:S:1:pos:R:3:forces:R:3 energy=        4.9000316472 pbc="T T T"
       O     0.0000000000     0.0000000000     0.0000000000    -30.758515120    -17.378804558     -0.000000000
       H     0.7000000000     0.0000000000     0.0000000000     36.709242248     -1.265405631     -0.000000000
       H    -0.1913400000     0.7483400000     0.0000000000     -5.950727128     18.644210189     -0.000000000
