       3
Lattice="15.0 0.0 0.0 0.0 15.0 0.0 0.0 0.0 15.0" Properties=species:S:1:pos:R:3:forces:R:3 energy=        2.1313376970 pbc="T T T"
       O     0.0000000000     0.0000000000     0.0000000000      4.421812198      3.446111152     -0.000000000
       H     1.3517200000     0.0000000000     0.0000000000     -5.968024284      0.431842897     -0.000000000
       H    -0.2690700000     1.0523600000     0.0000000000      1.546212086     -3.877954048     -0.000000000
