       3
Lattice="15.0 0.0 0.0 0.0 15.0 0.0 0.0 0.0 15.0" Properties=species:S:1:pos:R:3:forces:R:3 energy=        0.8669177505 pbc="T T T"
       O     0.0000000000     0.0000000000     0.0000000000      3.701405207      3.705592045     -0.000000000
       H     1.1344800000     0.0000000000     0.0000000000     -5.124533127      0.356652235     -0.000000000
       H    -0.2690700000     1.0523600000     0.0000000000      1.423127920     -4.062244279     -0.000000000
