       3
Lattice="15.0 0.0 0.0 0.0 15.0 0.0 0.0 0.0 15.0" Properties=species:S:1:pos:R:3:forces:R:3 energy=        0.0745346829 pbc="T T T"
       O     0.0000000000     0.0000000000     0.0000000000     -2.920845944      1.458198761     -0.000000000
       H     0.9172400000     0.0000000000     0.0000000000      2.565118227     -0.014110684     -0.000000000
       H    -0.2451500000     0.9588100000     0.0000000000      0.355727717     -1.444088077     -0.000000000
