       3
Lattice="15.0 0.0 0.0 0.0 15.0 0.0 0.0 0.0 15.0" Properties=species:S:1:pos:R:3:forces:R:3 energy=        1.1055389930 pbc="T T T"
       O     0.0000000000     0.0000000000     0.0000000000      6.723294833     -4.732044943     -0.000000000
       H     1.2069000000     0.0000000000     0.0000000000     -5.926643645      0.250400678     -0.000000000
       H    -0.2212400000     0.8652600000     0.0000000000     -0.796651188      4.481644265     -0.000000000
