       3
Lattice="15.0 0.0 0.0 0.0 15.0 0.0 0.0 0.0 15.0" Properties=species:S:1:pos:R:3:forces:R:3 energy=        0.7126112868 pbc="T T T"
       O     0.0000000000     0.0000000000     0.0000000000     -7.037034770     -5.757301917     -0.000000000
       H     0.8448300000     0.0000000000     0.0000000000      9.056405394     -0.434652856     -0.000000000
       H    -0.2152600000     0.8418900000     0.0000000000     -2.019370624      6.191954722     -0.000000000
