       3
Lattice="15.0 0.0 0.0 0.0 15.0 0.0 0.0 0.0 15.0" Properties=species:S:1:pos:R:3:forces:R:3 energy=        1.3537916240 pbc="T T T"
       O     0.0000000000     0.0000000000     0.0000000000      3.922590940      4.375716924     -0.000000000
       H     1.1827600000     0.0000000000     0.0000000000     -5.597501558      0.417559949     -0.000000000
       H    -0.2810300000     1.0991200000     0.0000000000      1.674910618     -4.793276873     -0.000000000
