       3
Lattice="15.0 0.0 0.0 0.0 15.0 0.0 0.0 0.0 15.0" Properties=species:S:1:pos:R:3:forces:R:3 energy=        2.4162650068 pbc="T T T"
       O     0.0000000000     0.0000000000     0.0000000000      4.263077767      3.406903764     -0.000000000
       H     1.4000000000     0.0000000000     0.0000000000     -5.823417918      0.434579734     -0.000000000
       H    -0.2690700000     1.0523600000     0.0000000000      1.560340150     -3.841483447     -0.000000000
