       3
Lattice="15.0 0.0 0.0 0.0 15.0 0.0 0.0 0.0 15.0" Properties=species:S:1:pos:R:3:forces:R:3 energy=        0.2730987897 pbc="T T T"
       O     0.0000000000     0.0000000000     0.0000000000      2.150695642      2.770251013     -0.000000000
       H     1.0379300000     0.0000000000     0.0000000000     -3.149493999      0.225562473     -0.000000000
       H    -0.2571100000     1.0055800000     0.0000000000      0.998798356     -2.995813434     -0.000000000
