       3
Lattice="15.0 0.0 0.0 0.0 15.0 0.0 0.0 0.0 15.0" Properties=species:S:1:pos:R:3:forces:R:3 energy=        2.3315492927 pbc="T T T"
       O     0.0000000000     0.0000000000     0.0000000000      4.156883803      4.496530445     -0.000000000
       H     1.3275900000     0.0000000000     0.0000000000     -5.963516727      0.456716429     -0.000000000
       H    -0.2870100000     1.1225100000     0.0000000000      1.806632923     -4.953246822     -0.000000000
