       3
Lattice="15.0 0.0 0.0 0.0 15.0 0.0 0.0 0.0 15.0" Properties=species:S:1:pos:R:3:forces:R:3 energy=        0.9621977083 pbc="T T T"
       O     0.0000000000     0.0000000000     0.0000000000      5.459970151     -0.218208343     -0.000000000
       H     1.2069000000     0.0000000000     0.0000000000     -5.877802997      0.306376808     -0.000000000
       H    -0.2391700000     0.9354300000     0.0000000000      0.417832846     -0.088168414     -0.000000000
