       3
Lattice="15.0 0.0 0.0 0.0 15.0 0.0 0.0 0.0 15.0" Properties=species:S:1:pos:R:3:forces:R:3 energy=        3.9488261877 pbc="T T T"
       O     0.0000000000     0.0000000000     0.0000000000    -32.101022257      5.686466655     -0.000000000
       H     0.7241400000     0.0000000000     0.0000000000     30.376498786      0.317866148     -0.000000000
       H    -0.3109300000     1.2160500000     0.0000000000      1.724523471     -6.004332803     -0.000000000
