       3
Lattice="15.0 0.0 0.0 0.0 15.0 0.0 0.0 0.0 15.0" Properties=species:S:1:pos:R:3:forces:R:3 energy=        2.7316456264 pbc="T T T"
       O     0.0000000000     0.0000000000     0.0000000000    -30.603401627      2.859120670     -0.000000000
       H     0.7241400000     0.0000000000     0.0000000000     30.209177947     -0.339196750     -0.000000000
       H    -0.2511300000     0.9821900000     0.0000000000      0.394223731     -2.519923971     -0.000000000
