       3
Lattice="15.0 0.0 0.0 0.0 15.0 0.0 0.0 0.0 15.0" Properties=species:S:1:pos:R:3:forces:R:3 energy=        3.3683844096 pbc="T T T"
       O     0.0000000000     0.0000000000     0.0000000000     13.075664100    -29.431213854     -0.000000000
       H     1.1586200000     0.0000000000     0.0000000000     -5.651220259      0.052768369     -0.000000000
       H    -0.1793800000     0.7015700000     0.0000000000     -7.424443841     29.378445485     -0.000000000
