       3
Lattice="15.0 0.0 0.0 0.0 15.0 0.0 0.0 0.0 15.0" Properties=species:S:1:pos:R:3:forces:R:3 energy=        2.8792707097 pbc="T T T"
       O     0.0000000000     0.0000000000     0.0000000000      3.706501599      4.995935485     -0.000000000
       H     1.2069000000     0.0000000000     0.0000000000     -5.603801072      0.533912809     -0.000000000
       H    -0.3408200000     1.3329800000     0.0000000000      1.897299474     -5.529848295     -0.000000000
