       3
Lattice="15.0 0.0 0.0 0.0 15.0 0.0 0.0 0.0 15.0" Properties=species:S:1:pos:R:3:forces:R:3 energy=        0.3573471973 pbc="T T T"
       O     0.0000000000     0.0000000000     0.0000000000      2.783441138      2.723295705     -0.000000000
       H     1.0620700000     0.0000000000     0.0000000000     -3.807816687      0.250083404     -0.000000000
       H    -0.2571100000     1.0055800000     0.0000000000      1.024375548     -2.973379108     -0.000000000
