       3
Lattice="15.0 0.0 0.0 0.0 15.0 0.0 0.0 0.0 15.0" Properties=species:S:1:pos:R:3:forces:R:3 energy=        0.5009427288 pbc="T T T"
       O     0.0000000000     0.0000000000     0.0000000000     -8.178390888     -2.021538117     -0.000000000
       H     0.8448300000     0.0000000000     0.0000000000      9.079376875     -0.318387517     -0.000000000
       H    -0.2272200000     0.8886500000     0.0000000000     -0.900985987      2.339925633     -0.000000000
