3
Lattice="15.0 0.0 0.0 0.0 15.0 0.0 0.0 0.0 15.0" Properties=species:S:1:pos:R:3 energy=0 pbc="T T T"
O        0.00000000       0.00000000       0.00000000
H        0.95883163       0.00000000       0.00000000
H       -0.23751797       0.92894742       0.00000000
       3
Lattice="15.0 0.0 0.0 0.0 15.0 0.0 0.0 0.0 15.0" Properties=species:S:1:pos:R:3:forces:R:3 energy=        1.6521743166 pbc="T T T"
       O     0.0000000000     0.0000000000     0.0000000000      0.874453013      0.504043261     -0.000000000
       H     0.9588300000     0.0000000000     0.0000000000      2.359628161     -5.097589805     -0.000000000
       H     0.4794200000     0.8303700000     0.0000000000     -3.234081122      4.593546492     -0.000000000
       3
Lattice="15.0 0.0 0.0 0.0 15.0 0.0 0.0 0.0 15.0" Properties=species:S:1:pos:R:3:forces:R:3 energy=        1.1622095670 pbc="T T T"
       O     0.0000000000     0.0000000000     0.0000000000      1.196508621      0.782448819     -0.000000000
       H     0.9588300000     0.0000000000     0.0000000000      1.795918103     -4.049044230     -0.000000000
       H     0.3834300000     0.8788300000     0.0000000000     -2.992426724      3.266595410     -0.000000000
       3
Lattice="15.0 0.0 0.0 0.0 15.0 0.0 0.0 0.0 15.0" Properties=species:S:1:pos:R:3:forces:R:3 energy=        0.7745761597 pbc="T T T"
       O     0.0000000000     0.0000000000     0.0000000000      1.295194549      0.954666070     -0.000000000
       H     0.9588300000     0.0000000000     0.0000000000      1.343812744     -3.176720143     -0.000000000
       H     0.2826200000     0.9162300000     0.0000000000     -2.639007293      2.222054125     -0.000000000
       3
Lattice="15.0 0.0 0.0 0.0 15.0 0.0 0.0 0.0 15.0" Properties=species:S:1:pos:R:3:forces:R:3 energy=        0.4749129129 pbc="T T T"
       O     0.0000000000     0.0000000000     0.0000000000      1.211131828      1.002188460     -0.000000000
       H     0.9588300000     0.0000000000     0.0000000000      0.971729410     -2.405735930     -0.000000000
       H     0.1782600000     0.9421100000     0.0000000000     -2.182861238      1.403547469     -0.000000000
       3
Lattice="15.0 0.0 0.0 0.0 15.0 0.0 0.0 0.0 15.0" Properties=species:S:1:pos:R:3:forces:R:3 energy=        0.2541679727 pbc="T T T"
       O     0.0000000000     0.0000000000     0.0000000000      0.990237144      0.917987363     -0.000000000
       H     0.9588300000     0.0000000000     0.0000000000      0.661232407     -1.705717899     -0.000000000
       H     0.0716500000     0.9561500000     0.0000000000     -1.651469551      0.787730536     -0.000000000
       3
Lattice="15.0 0.0 0.0 0.0 15.0 0.0 0.0 0.0 15.0" Properties=species:S:1:pos:R:3:forces:R:3 energy=        0.1055065192 pbc="T T T"
       O     0.0000000000     0.0000000000     0.0000000000      0.679244690      0.704734516     -0.000000000
       H     0.9588300000     0.0000000000     0.0000000000      0.399688717     -1.064719878     -0.000000000
       H    -0.0358500000     0.9581600000     0.0000000000     -1.078933406      0.359985363     -0.000000000
       3
Lattice="15.0 0.0 0.0 0.0 15.0 0.0 0.0 0.0 15.0" Properties=species:S:1:pos:R:3:forces:R:3 energy=        0.0228234602 pbc="T T T"
       O     0.0000000000     0.0000000000     0.0000000000      0.322531828      0.374984774     -0.000000000
       H     0.9588300000     0.0000000000     0.0000000000      0.176990043     -0.478511938     -0.000000000
       H    -0.1429100000     0.9481200000     0.0000000000     -0.499521871      0.103527163     -0.000000000
       3
Lattice="15.0 0.0 0.0 0.0 15.0 0.0 0.0 0.0 15.0" Properties=species:S:1:pos:R:3:forces:R:3 energy=        0.0002848297 pbc="T T T"
       O     0.0000000000     0.0000000000     0.0000000000     -0.040086911     -0.051243910     -0.000000000
       H     0.9588300000     0.0000000000     0.0000000000     -0.015455937      0.053155577     -0.000000000
       H    -0.2481600000     0.9261600000     0.0000000000      0.055542848     -0.001911668     -0.000000000
       3
Lattice="15.0 0.0 0.0 0.0 15.0 0.0 0.0 0.0 15.0" Properties=species:S:1:pos:R:3:forces:R:3 energy=        0.0319472883 pbc="T T T"
       O     0.0000000000     0.0000000000     0.0000000000     -0.374720825     -0.547758001     -0.000000000
       H     0.9588300000     0.0000000000     0.0000000000     -0.185269513      0.528365394     -0.000000000
       H    -0.3503000000     0.8925500000     0.0000000000      0.559990287      0.019392606     -0.000000000
       3
Lattice="15.0 0.0 0.0 0.0 15.0 0.0 0.0 0.0 15.0" Properties=species:S:1:pos:R:3:forces:R:3 energy=        0.1114770102 pbc="T T T"
       O     0.0000000000     0.0000000000     0.0000000000     -0.652744317     -1.080335224     -0.000000000
       H     0.9588300000     0.0000000000     0.0000000000     -0.338709166      0.941456558     -0.000000000
       H    -0.4480300000     0.8477200000     0.0000000000      0.991453534      0.138878666     -0.000000000
       3
Lattice="15.0 0.0 0.0 0.0 15.0 0.0 0.0 0.0 15.0" Properties=species:S:1:pos:R:3:forces:R:3 energy=        0.2317168051 pbc="T T T"
       O     0.0000000000     0.0000000000     0.0000000000     -0.850799058     -1.606361839     -0.000000000
       H     0.9588300000     0.0000000000     0.0000000000     -0.480919880      1.282661701     -0.000000000
       H    -0.5401300000     0.7922200000     0.0000000000      1.331718886      0.323700138     -0.000000000
       3
Lattice="15.0 0.0 0.0 0.0 15.0 0.0 0.0 0.0 15.0" Properties=species:S:1:pos:R:3:forces:R:3 energy=        0.3842523899 pbc="T T T"
       O     0.0000000000     0.0000000000     0.0000000000     -0.953860234     -2.074912907     -0.000000000
       H     0.9588300000     0.0000000000     0.0000000000     -0.616204913      1.539386832     -0.000000000
       H    -0.6254300000     0.7267700000     0.0000000000      1.570065095      0.535526074     -0.000000000
       3
Lattice="15.0 0.0 0.0 0.0 15.0 0.0 0.0 0.0 15.0" Properties=species:S:1:pos:R:3:forces:R:3 energy=        0.5593464259 pbc="T T T"
       O     0.0000000000     0.0000000000     0.0000000000     -0.957358222     -2.434803961     -0.000000000
       H     0.9588300000     0.0000000000     0.0000000000     -0.748229888      1.699274249     -0.000000000
       H    -0.7028700000     0.6521700000     0.0000000000      1.705588059      0.735529713     -0.000000000
       3
Lattice="15.0 0.0 0.0 0.0 15.0 0.0 0.0 0.0 15.0" Properties=species:S:1:pos:R:3:forces:R:3 energy=        0.7459893524 pbc="T T T"
       O     0.0000000000     0.0000000000     0.0000000000     -0.869744343     -2.638768335     -0.000000000
       H     0.9588300000     0.0000000000     0.0000000000     -0.879209607      1.752027140     -0.000000000
       H    -0.7714700000     0.5693700000     0.0000000000      1.748953950      0.886741194     -0.000000000
       3
Lattice="15.0 0.0 0.0 0.0 15.0 0.0 0.0 0.0 15.0" Properties=species:S:1:pos:R:3:forces:R:3 energy=        0.9322109025 pbc="T T T"
       O     0.0000000000     0.0000000000     0.0000000000     -0.710702974     -2.648280547     -0.000000000
       H     0.9588300000     0.0000000000     0.0000000000     -1.008841861      1.689816544     -0.000000000
       H    -0.8303700000     0.4794100000     0.0000000000      1.719544836      0.958464054     -0.000000000
