3
Lattice="15.0 0.0 0.0 0.0 15.0 0.0 0.0 0.0 15.0" Properties=species:S:1:pos:R:3:forces:R:3 energy=0.9285151908 pbc="T T T"
O        0.00000000       0.00000000       0.00000000      -5.10119532      -6.06074515       0.00000000
H        0.87148370       0.00000000       0.00000000       7.00469964      -2.31996965       0.00000000
H        0.04649089       0.85746526       0.00000000      -1.90350437       8.38071479       0.00000000
3
Lattice="15.0 0.0 0.0 0.0 15.0 0.0 0.0 0.0 15.0" Properties=species:S:1:pos:R:3:forces:R:3 energy=0.0129901606 pbc="T T T"
O        0.00000000       0.00000000       0.00000000       0.45171028       0.30359940       0.00000000
H        0.97405750       0.00000000       0.00000000      -0.81102685       0.20107594       0.00000000
H       -0.27398716       0.92991549       0.00000000       0.35931662      -0.50467529       0.00000000
3
Lattice="15.0 0.0 0.0 0.0 15.0 0.0 0.0 0.0 15.0" Properties=species:S:1:pos:R:3:forces:R:3 energy=0.0098163769 pbc="T T T"
O        0.00000000       0.00000000       0.00000000      -0.31920508      -0.20992908       0.00000000
H        0.94834284       0.00000000       0.00000000       0.64511133      -0.22874627       0.00000000
H       -0.19670128       0.93038371       0.00000000      -0.32590630       0.43867535       0.00000000
3
Lattice="15.0 0.0 0.0 0.0 15.0 0.0 0.0 0.0 15.0" Properties=species:S:1:pos:R:3:forces:R:3 energy=0.4013227699 pbc="T T T"
O        0.00000000       0.00000000       0.00000000       1.25908817      -7.86398072       0.00000000
H        0.93292284       0.00000000       0.00000000       1.26340500       0.21942792       0.00000000
H       -0.29123463       0.80144885       0.00000000      -2.52249312       7.64455285       0.00000000
3
Lattice="15.0 0.0 0.0 0.0 15.0 0.0 0.0 0.0 15.0" Properties=species:S:1:pos:R:3:forces:R:3 energy=0.6589949215 pbc="T T T"
O        0.00000000       0.00000000       0.00000000       5.70595984       1.86876921       0.00000000
H        1.11395071       0.00000000       0.00000000      -4.23707665      -1.23417659       0.00000000
H        0.10843556       0.98280401       0.00000000      -1.46888319      -0.63459263       0.00000000
3
Lattice="15.0 0.0 0.0 0.0 15.0 0.0 0.0 0.0 15.0" Properties=species:S:1:pos:R:3:forces:R:3 energy=1.5308926196 pbc="T T T"
O        0.00000000       0.00000000       0.00000000       6.92383691       3.63767067       0.00000000
H        1.25593646       0.00000000       0.00000000      -5.45686513      -0.88556419       0.00000000
H        0.14999106       1.03955896       0.00000000      -1.46697183      -2.75210647       0.00000000
3
Lattice="15.0 0.0 0.0 0.0 15.0 0.0 0.0 0.0 15.0" Properties=species:S:1:pos:R:3:forces:R:3 energy=0.1302856889 pbc="T T T"
O        0.00000000       0.00000000       0.00000000       2.22799168      -3.04955075       0.00000000
H        0.98566730       0.00000000       0.00000000      -1.14803178      -0.46984634       0.00000000
H       -0.14251279       0.89324731       0.00000000      -1.07995989       3.51939709       0.00000000
3
Lattice="15.0 0.0 0.0 0.0 15.0 0.0 0.0 0.0 15.0" Properties=species:S:1:pos:R:3:forces:R:3 energy=0.0146299595 pbc="T T T"
O        0.00000000       0.00000000       0.00000000      -0.18785075       1.13777025       0.00000000
H        0.96096260       0.00000000       0.00000000      -0.07612423      -0.00970849       0.00000000
H       -0.23184224       0.95540445       0.00000000       0.26397498      -1.12806176       0.00000000
3
Lattice="15.0 0.0 0.0 0.0 15.0 0.0 0.0 0.0 15.0" Properties=species:S:1:pos:R:3:forces:R:3 energy=0.9628043944 pbc="T T T"
O        0.00000000       0.00000000       0.00000000       2.33320276       2.27791893       0.00000000
H        1.12739719       0.00000000       0.00000000      -5.24086347       1.03285022       0.00000000
H       -0.48960678       0.95795479       0.00000000       2.90766070      -3.31076914       0.00000000
3
Lattice="15.0 0.0 0.0 0.0 15.0 0.0 0.0 0.0 15.0" Properties=species:S:1:pos:R:3:forces:R:3 energy=0.1703213222 pbc="T T T"
O        0.00000000       0.00000000       0.00000000       2.19166861       2.31841254       0.00000000
H        1.02530383       0.00000000       0.00000000      -2.71015741       0.01886188       0.00000000
H       -0.21217171       0.99373921       0.00000000       0.51848881      -2.33727436       0.00000000
3
Lattice="15.0 0.0 0.0 0.0 15.0 0.0 0.0 0.0 15.0" Properties=species:S:1:pos:R:3:forces:R:3 energy=1.2719672639 pbc="T T T"
O        0.00000000       0.00000000       0.00000000       4.61122916       5.88444791       0.00000000
H        1.10063089       0.00000000       0.00000000      -4.27449074      -0.43070667       0.00000000
H       -0.01298372       1.19748511       0.00000000      -0.33673841      -5.45374124       0.00000000
3
Lattice="15.0 0.0 0.0 0.0 15.0 0.0 0.0 0.0 15.0" Properties=species:S:1:pos:R:3:forces:R:3 energy=0.0294658249 pbc="T T T"
O        0.00000000       0.00000000       0.00000000       0.57035544      -1.42894062       0.00000000
H        0.96784187       0.00000000       0.00000000      -0.61798149       0.38462950       0.00000000
H       -0.31612497       0.88455285       0.00000000       0.04762606       1.04431107       0.00000000
3
Lattice="15.0 0.0 0.0 0.0 15.0 0.0 0.0 0.0 15.0" Properties=species:S:1:pos:R:3:forces:R:3 energy=1.104693889 pbc="T T T"
O        0.00000000       0.00000000       0.00000000       2.16969507       2.50166923       0.00000000
H        1.13536906       0.00000000       0.00000000      -5.33476030       1.08150595       0.00000000
H       -0.51177245       0.96733510       0.00000000       3.16506527      -3.58317518       0.00000000
3
Lattice="15.0 0.0 0.0 0.0 15.0 0.0 0.0 0.0 15.0" Properties=species:S:1:pos:R:3:forces:R:3 energy=0.40073151 pbc="T T T"
O        0.00000000       0.00000000       0.00000000      -0.74310624       0.46443920       0.00000000
H        0.99561321       0.00000000       0.00000000      -2.09357105       1.35299879       0.00000000
H       -0.57617229       0.84402300       0.00000000       2.83667729      -1.81743799       0.00000000
3
Lattice="15.0 0.0 0.0 0.0 15.0 0.0 0.0 0.0 15.0" Properties=species:S:1:pos:R:3:forces:R:3 energy=0.0652514424 pbc="T T T"
O        0.00000000       0.00000000       0.00000000      -1.45734161      -1.21768079       0.00000000
H        0.93698901       0.00000000       0.00000000       0.98740106       0.66238478       0.00000000
H       -0.38410490       0.86682302       0.00000000       0.46994054       0.55529602       0.00000000
3
Lattice="15.0 0.0 0.0 0.0 15.0 0.0 0.0 0.0 15.0" Properties=species:S:1:pos:R:3:forces:R:3 energy=0.0113539944 pbc="T T T"
O        0.00000000       0.00000000       0.00000000      -1.15517591       0.25612997       0.00000000
H        0.94203050       0.00000000       0.00000000       0.89514428       0.14155524       0.00000000
H       -0.27120858       0.92759849       0.00000000       0.26003168      -0.39768516       0.00000000
3
Lattice="15.0 0.0 0.0 0.0 15.0 0.0 0.0 0.0 15.0" Properties=species:S:1:pos:R:3:forces:R:3 energy=1.54651383 pbc="T T T"
O        0.00000000       0.00000000       0.00000000       4.12638706       6.32020311       0.00000000
H        1.04968479       0.00000000       0.00000000      -3.00347944      -0.78982141       0.00000000
H        0.10692493       1.26492972       0.00000000      -1.12290757      -5.53038170       0.00000000
3
Lattice="15.0 0.0 0.0 0.0 15.0 0.0 0.0 0.0 15.0" Properties=species:S:1:pos:R:3:forces:R:3 energy=0.2675767478 pbc="T T T"
O        0.00000000       0.00000000       0.00000000       4.25333061      -0.66636356       0.00000000
H        1.05701327       0.00000000       0.00000000      -3.40732172      -0.67396832       0.00000000
H       -0.06067040       0.93818391       0.00000000      -0.84600889       1.34033183       0.00000000
3
Lattice="15.0 0.0 0.0 0.0 15.0 0.0 0.0 0.0 15.0" Properties=species:S:1:pos:R:3:forces:R:3 energy=0.3057661729 pbc="T T T"
O        0.00000000       0.00000000       0.00000000       1.62443737       1.43291632       0.00000000
H        0.96983193       0.00000000       0.00000000       0.18238520      -1.83974998       0.00000000
H        0.10667685       0.96348616       0.00000000      -1.80682257       0.40683366       0.00000000
3
Lattice="15.0 0.0 0.0 0.0 15.0 0.0 0.0 0.0 15.0" Properties=species:S:1:pos:R:3:forces:R:3 energy=0.2528474668 pbc="T T T"
O        0.00000000       0.00000000       0.00000000      -1.38416895       3.82896484       0.00000000
H        0.95268611       0.00000000       0.00000000       0.43241276       0.06523355       0.00000000
H       -0.23889551       1.04276034       0.00000000       0.95175620      -3.89419844       0.00000000
3
Lattice="15.0 0.0 0.0 0.0 15.0 0.0 0.0 0.0 15.0" Properties=species:S:1:pos:R:3:forces:R:3 energy=0.012144594 pbc="T T T"
O        0.00000000       0.00000000       0.00000000      -0.23274254       0.89915942       0.00000000
H        0.95412175       0.00000000       0.00000000       0.35835806      -0.25206002       0.00000000
H       -0.18628790       0.95489150       0.00000000      -0.12561552      -0.64709941       0.00000000
3
Lattice="15.0 0.0 0.0 0.0 15.0 0.0 0.0 0.0 15.0" Properties=species:S:1:pos:R:3:forces:R:3 energy=0.0457713173 pbc="T T T"
O        0.00000000       0.00000000       0.00000000      -1.19100281       1.49669622       0.00000000
H        0.95042887       0.00000000       0.00000000       0.41868213       0.24651024       0.00000000
H       -0.28893570       0.95551643       0.00000000       0.77232062      -1.74320650       0.00000000
3
Lattice="15.0 0.0 0.0 0.0 15.0 0.0 0.0 0.0 15.0" Properties=species:S:1:pos:R:3:forces:R:3 energy=0.0064878448 pbc="T T T"
O        0.00000000       0.00000000       0.00000000       0.20445144       0.18012427       0.00000000
H        0.95936716       0.00000000       0.00000000       0.06511594      -0.25040448       0.00000000
H       -0.18690651       0.93989729       0.00000000      -0.26956744       0.07028021       0.00000000
3
Lattice="15.0 0.0 0.0 0.0 15.0 0.0 0.0 0.0 15.0" Properties=species:S:1:pos:R:3:forces:R:3 energy=0.7698583612 pbc="T T T"
O        0.00000000       0.00000000       0.00000000       6.70626003     -11.18433242       0.00000000
H        1.01626130       0.00000000       0.00000000      -2.84742168       0.51725786       0.00000000
H       -0.32381142       0.75889457       0.00000000      -3.85883835      10.66707455       0.00000000
3
Lattice="15.0 0.0 0.0 0.0 15.0 0.0 0.0 0.0 15.0" Properties=species:S:1:pos:R:3:forces:R:3 energy=0.0258579461 pbc="T T T"
O        0.00000000       0.00000000       0.00000000       1.61144964      -0.24027181       0.00000000
H        0.99020427       0.00000000       0.00000000      -1.43871005      -0.09258069       0.00000000
H       -0.20748995       0.93051829       0.00000000      -0.17273960       0.33285255       0.00000000
3
Lattice="15.0 0.0 0.0 0.0 15.0 0.0 0.0 0.0 15.0" Properties=species:S:1:pos:R:3:forces:R:3 energy=0.005331614 pbc="T T T"
O        0.00000000       0.00000000       0.00000000       0.35696545      -0.14403789       0.00000000
H        0.96837925       0.00000000       0.00000000      -0.53861294       0.16650750       0.00000000
H       -0.26880772       0.92091776       0.00000000       0.18164750      -0.02246960       0.00000000
3
Lattice="15.0 0.0 0.0 0.0 15.0 0.0 0.0 0.0 15.0" Properties=species:S:1:pos:R:3:forces:R:3 energy=0.0056427217 pbc="T T T"
O        0.00000000       0.00000000       0.00000000      -0.80746140       0.10801307       0.00000000
H        0.94454886       0.00000000       0.00000000       0.79462634      -0.01177720       0.00000000
H       -0.23964440       0.93012445       0.00000000       0.01283511      -0.09623587       0.00000000
3
Lattice="15.0 0.0 0.0 0.0 15.0 0.0 0.0 0.0 15.0" Properties=species:S:1:pos:R:3:forces:R:3 energy=1.5625762703 pbc="T T T"
O        0.00000000       0.00000000       0.00000000      -4.90429819       2.82146942       0.00000000
H        0.95360438       0.00000000       0.00000000       0.19657157       1.63942927       0.00000000
H       -0.72024125       1.01456404       0.00000000       4.70772662      -4.46089869       0.00000000
3
Lattice="15.0 0.0 0.0 0.0 15.0 0.0 0.0 0.0 15.0" Properties=species:S:1:pos:R:3:forces:R:3 energy=0.0348975168 pbc="T T T"
O        0.00000000       0.00000000       0.00000000      -1.90365704       0.32263642       0.00000000
H        0.92533737       0.00000000       0.00000000       2.03652380      -0.17008303       0.00000000
H       -0.21543390       0.93717167       0.00000000      -0.13286681      -0.15255339       0.00000000
3
Lattice="15.0 0.0 0.0 0.0 15.0 0.0 0.0 0.0 15.0" Properties=species:S:1:pos:R:3:forces:R:3 energy=0.1642399748 pbc="T T T"
O        0.00000000       0.00000000       0.00000000      -4.29974958       1.59733767       0.00000000
H        0.89348918       0.00000000       0.00000000       4.48826856      -0.43262225       0.00000000
H       -0.17517712       0.96813484       0.00000000      -0.18851898      -1.16471542       0.00000000
3
Lattice="15.0 0.0 0.0 0.0 15.0 0.0 0.0 0.0 15.0" Properties=species:S:1:pos:R:3:forces:R:3 energy=0.6573722712 pbc="T T T"
O        0.00000000       0.00000000       0.00000000       5.61088837     -10.41683729       0.00000000
H        0.98925717       0.00000000       0.00000000      -1.85167327       0.61455565       0.00000000
H       -0.35099206       0.75350022       0.00000000      -3.75921510       9.80228164       0.00000000
3
Lattice="15.0 0.0 0.0 0.0 15.0 0.0 0.0 0.0 15.0" Properties=species:S:1:pos:R:3:forces:R:3 energy=0.5581874985 pbc="T T T"
O        0.00000000       0.00000000       0.00000000      -3.56542382      -6.86766954       0.00000000
H        0.87177901       0.00000000       0.00000000       5.92495032       0.47273338       0.00000000
H       -0.35470091       0.78667084       0.00000000      -2.35952650       6.39493621       0.00000000
3
Lattice="15.0 0.0 0.0 0.0 15.0 0.0 0.0 0.0 15.0" Properties=species:S:1:pos:R:3:forces:R:3 energy=0.0495660403 pbc="T T T"
O        0.00000000       0.00000000       0.00000000       0.27538456       0.60254181       0.00000000
H        0.97964258       0.00000000       0.00000000      -1.14329427       0.46092085       0.00000000
H       -0.33077386       0.92556094       0.00000000       0.86790971      -1.06346266       0.00000000
3
Lattice="15.0 0.0 0.0 0.0 15.0 0.0 0.0 0.0 15.0" Properties=species:S:1:pos:R:3:forces:R:3 energy=1.8201646517 pbc="T T T"
O        0.00000000       0.00000000       0.00000000       5.38136295     -20.80915798       0.00000000
H        1.00437296       0.00000000       0.00000000      -1.82156785      -0.91206467       0.00000000
H       -0.08193531       0.75728747       0.00000000      -3.55979510      21.72122265       0.00000000
3
Lattice="15.0 0.0 0.0 0.0 15.0 0.0 0.0 0.0 15.0" Properties=species:S:1:pos:R:3:forces:R:3 energy=0.0096227815 pbc="T T T"
O        0.00000000       0.00000000       0.00000000      -0.69973038      -0.08838567       0.00000000
H        0.94322897       0.00000000       0.00000000       0.91541677      -0.15746410       0.00000000
H       -0.21206152       0.93033219       0.00000000      -0.21568640       0.24584977       0.00000000
3
Lattice="15.0 0.0 0.0 0.0 15.0 0.0 0.0 0.0 15.0" Properties=species:S:1:pos:R:3:forces:R:3 energy=0.2051800002 pbc="T T T"
O        0.00000000       0.00000000       0.00000000       2.91416411       2.68152457       0.00000000
H        1.01866002       0.00000000       0.00000000      -2.19879766      -0.78013786       0.00000000
H       -0.03840283       1.00882088       0.00000000      -0.71536644      -1.90138671       0.00000000
3
Lattice="15.0 0.0 0.0 0.0 15.0 0.0 0.0 0.0 15.0" Properties=species:S:1:pos:R:3:forces:R:3 energy=0.1006620081 pbc="T T T"
O        0.00000000       0.00000000       0.00000000      -0.79613512      -0.96689414       0.00000000
H        0.95614725       0.00000000       0.00000000      -0.17893586       0.90108318       0.00000000
H       -0.43838712       0.85400710       0.00000000       0.97507097       0.06581096       0.00000000
3
Lattice="15.0 0.0 0.0 0.0 15.0 0.0 0.0 0.0 15.0" Properties=species:S:1:pos:R:3:forces:R:3 energy=0.0129876163 pbc="T T T"
O        0.00000000       0.00000000       0.00000000      -0.03898607      -0.38095323       0.00000000
H        0.95193022       0.00000000       0.00000000       0.46219854      -0.28359132       0.00000000
H       -0.18528760       0.92882664       0.00000000      -0.42321247       0.66454455       0.00000000
3
Lattice="15.0 0.0 0.0 0.0 15.0 0.0 0.0 0.0 15.0" Properties=species:S:1:pos:R:3:forces:R:3 energy=0.5132069631 pbc="T T T"
O        0.00000000       0.00000000       0.00000000      -4.52237195      -5.76135171       0.00000000
H        0.86718153       0.00000000       0.00000000       6.35322246       0.57281398       0.00000000
H       -0.37517122       0.79190317       0.00000000      -1.83085052       5.18853779       0.00000000
3
Lattice="15.0 0.0 0.0 0.0 15.0 0.0 0.0 0.0 15.0" Properties=species:S:1:pos:R:3:forces:R:3 energy=0.365692845 pbc="T T T"
O        0.00000000       0.00000000       0.00000000      -0.99530747      -1.50781161       0.00000000
H        0.96601886       0.00000000       0.00000000      -0.93486558       1.50436320       0.00000000
H       -0.61549266       0.75180862       0.00000000       1.93017305       0.00344842       0.00000000
3
Lattice="15.0 0.0 0.0 0.0 15.0 0.0 0.0 0.0 15.0" Properties=species:S:1:pos:R:3:forces:R:3 energy=0.1388648974 pbc="T T T"
O        0.00000000       0.00000000       0.00000000      -1.84003080      -2.70998556       0.00000000
H        0.92070242       0.00000000       0.00000000       1.96650167       0.74670723       0.00000000
H       -0.40363265       0.82982017       0.00000000      -0.12647093       1.96327833       0.00000000
3
Lattice="15.0 0.0 0.0 0.0 15.0 0.0 0.0 0.0 15.0" Properties=species:S:1:pos:R:3:forces:R:3 energy=0.0806271871 pbc="T T T"
O        0.00000000       0.00000000       0.00000000       1.66713082       1.90221028       0.00000000
H        0.99989729       0.00000000       0.00000000      -1.73921893      -0.21675125       0.00000000
H       -0.17065451       0.98354906       0.00000000       0.07208806      -1.68545898       0.00000000
3
Lattice="15.0 0.0 0.0 0.0 15.0 0.0 0.0 0.0 15.0" Properties=species:S:1:pos:R:3:forces:R:3 energy=0.4601927341 pbc="T T T"
O        0.00000000       0.00000000       0.00000000      -5.56285238      -3.85222619       0.00000000
H        0.86436355       0.00000000       0.00000000       7.07674522      -0.61903071       0.00000000
H       -0.17583405       0.87276112       0.00000000      -1.51389284       4.47125695       0.00000000
3
Lattice="15.0 0.0 0.0 0.0 15.0 0.0 0.0 0.0 15.0" Properties=species:S:1:pos:R:3:forces:R:3 energy=0.2233577993 pbc="T T T"
O        0.00000000       0.00000000       0.00000000       0.20738250       3.58459680       0.00000000
H        0.95256473       0.00000000       0.00000000       0.78390314      -1.08980717       0.00000000
H       -0.00703417       1.02953479       0.00000000      -0.99128564      -2.49478968       0.00000000
3
Lattice="15.0 0.0 0.0 0.0 15.0 0.0 0.0 0.0 15.0" Properties=species:S:1:pos:R:3:forces:R:3 energy=0.0290764136 pbc="T T T"
O        0.00000000       0.00000000       0.00000000       0.90814410      -0.82880922       0.00000000
H        0.96700576       0.00000000       0.00000000      -0.28914655      -0.39009027       0.00000000
H       -0.16004073       0.92454822       0.00000000      -0.61899754       1.21889950       0.00000000
3
Lattice="15.0 0.0 0.0 0.0 15.0 0.0 0.0 0.0 15.0" Properties=species:S:1:pos:R:3:forces:R:3 energy=0.0383101131 pbc="T T T"
O        0.00000000       0.00000000       0.00000000      -0.43316316      -1.10166583       0.00000000
H        0.95385321       0.00000000       0.00000000       0.05616413       0.55251429       0.00000000
H       -0.35636525       0.87883250       0.00000000       0.37699898       0.54915159       0.00000000
3
Lattice="15.0 0.0 0.0 0.0 15.0 0.0 0.0 0.0 15.0" Properties=species:S:1:pos:R:3:forces:R:3 energy=0.0271189898 pbc="T T T"
O        0.00000000       0.00000000       0.00000000       1.65020092      -0.29028144       0.00000000
H        0.99075973       0.00000000       0.00000000      -1.46147697      -0.09645215       0.00000000
H       -0.20659278       0.92970337       0.00000000      -0.18872395       0.38673359       0.00000000
3
Lattice="15.0 0.0 0.0 0.0 15.0 0.0 0.0 0.0 15.0" Properties=species:S:1:pos:R:3:forces:R:3 energy=0.9896629331 pbc="T T T"
O        0.00000000       0.00000000       0.00000000       6.10629396      -1.82727344       0.00000000
H        1.17193337       0.00000000       0.00000000      -4.95383010      -1.16401351       0.00000000
H        0.10317311       0.91588638       0.00000000      -1.15246385       2.99128695       0.00000000
3
Lattice="15.0 0.0 0.0 0.0 15.0 0.0 0.0 0.0 15.0" Properties=species:S:1:pos:R:3:forces:R:3 energy=0.1989213869 pbc="T T T"
O        0.00000000       0.00000000       0.00000000      -1.28642426       0.21952089       0.00000000
H        0.92256167       0.00000000       0.00000000       2.64279900      -1.37773353       0.00000000
H       -0.01054617       0.94609461       0.00000000      -1.35637475       1.15821259       0.00000000
3
Lattice="15.0 0.0 0.0 0.0 15.0 0.0 0.0 0.0 15.0" Properties=species:S:1:pos:R:3:forces:R:3 energy=0.1299540583 pbc="T T T"
O        0.00000000       0.00000000       0.00000000       0.90330461       1.19515915       0.00000000
H        1.00391633       0.00000000       0.00000000      -2.16280272       0.56305864       0.00000000
H       -0.35084370       0.93856706       0.00000000       1.25949811      -1.75821779       0.00000000
3
Lattice="15.0 0.0 0.0 0.0 15.0 0.0 0.0 0.0 15.0" Properties=species:S:1:pos:R:3:forces:R:3 energy=0.0436637301 pbc="T T T"
O        0.00000000       0.00000000       0.00000000       1.72497028       0.57760703       0.00000000
H        0.99041199       0.00000000       0.00000000      -1.31337699      -0.41888525       0.00000000
H       -0.13899706       0.95435730       0.00000000      -0.41159334      -0.15872183       0.00000000
3
Lattice="15.0 0.0 0.0 0.0 15.0 0.0 0.0 0.0 15.0" Properties=species:S:1:pos:R:3:forces:R:3 energy=0.2028386455 pbc="T T T"
O        0.00000000       0.00000000       0.00000000       2.61154975      -5.09972454       0.00000000
H        0.98243782       0.00000000       0.00000000      -1.19391762      -0.07230424       0.00000000
H       -0.22032117       0.85391820       0.00000000      -1.41763213       5.17202878       0.00000000
3
Lattice="15.0 0.0 0.0 0.0 15.0 0.0 0.0 0.0 15.0" Properties=species:S:1:pos:R:3:forces:R:3 energy=0.1123408819 pbc="T T T"
O        0.00000000       0.00000000       0.00000000      -0.41820190      -1.69279301       0.00000000
H        0.95661710       0.00000000       0.00000000      -0.23870673       0.92814683       0.00000000
H       -0.44330535       0.83559477       0.00000000       0.65690863       0.76464613       0.00000000
3
Lattice="15.0 0.0 0.0 0.0 15.0 0.0 0.0 0.0 15.0" Properties=species:S:1:pos:R:3:forces:R:3 energy=0.4148028824 pbc="T T T"
O        0.00000000       0.00000000       0.00000000      -2.63834184      -1.61414113       0.00000000
H        0.93716230       0.00000000       0.00000000       0.62006388       1.58743841       0.00000000
H       -0.64291662       0.72860122       0.00000000       2.01827801       0.02670272       0.00000000
3
Lattice="15.0 0.0 0.0 0.0 15.0 0.0 0.0 0.0 15.0" Properties=species:S:1:pos:R:3:forces:R:3 energy=1.3195341735 pbc="T T T"
O        0.00000000       0.00000000       0.00000000       5.87158478      -3.61198718       0.00000000
H        1.19713585       0.00000000       0.00000000      -6.24097422       1.29777013       0.00000000
H       -0.55230341       0.74570949       0.00000000       0.36938943       2.31421706       0.00000000
3
Lattice="15.0 0.0 0.0 0.0 15.0 0.0 0.0 0.0 15.0" Properties=species:S:1:pos:R:3:forces:R:3 energy=0.0085716383 pbc="T T T"
O        0.00000000       0.00000000       0.00000000      -0.61798638       0.80874170       0.00000000
H        0.95030098       0.00000000       0.00000000       0.50244265      -0.06215696       0.00000000
H       -0.22580579       0.94782614       0.00000000       0.11554373      -0.74658479       0.00000000
3
Lattice="15.0 0.0 0.0 0.0 15.0 0.0 0.0 0.0 15.0" Properties=species:S:1:pos:R:3:forces:R:3 energy=0.0420271476 pbc="T T T"
O        0.00000000       0.00000000       0.00000000       0.03931008       0.74945548       0.00000000
H        0.97421543       0.00000000       0.00000000      -0.87357817       0.41390029       0.00000000
H       -0.32110403       0.93109914       0.00000000       0.83426809      -1.16335582       0.00000000
3
Lattice="15.0 0.0 0.0 0.0 15.0 0.0 0.0 0.0 15.0" Properties=species:S:1:pos:R:3:forces:R:3 energy=1.2255288541 pbc="T T T"
O        0.00000000       0.00000000       0.00000000      -0.14315642       5.68582162       0.00000000
H        0.98566686       0.00000000       0.00000000      -1.04298644       0.16489238       0.00000000
H       -0.22209387       1.23251317       0.00000000       1.18614280      -5.85071400       0.00000000
3
Lattice="15.0 0.0 0.0 0.0 15.0 0.0 0.0 0.0 15.0" Properties=species:S:1:pos:R:3:forces:R:3 energy=0.144600742 pbc="T T T"
O        0.00000000       0.00000000       0.00000000       2.35854423      -1.37188401       0.00000000
H        0.99281344       0.00000000       0.00000000      -1.24633400      -0.90913197       0.00000000
H       -0.05470170       0.92372274       0.00000000      -1.11221023       2.28101592       0.00000000
3
Lattice="15.0 0.0 0.0 0.0 15.0 0.0 0.0 0.0 15.0" Properties=species:S:1:pos:R:3:forces:R:3 energy=0.3622896612 pbc="T T T"
O        0.00000000       0.00000000       0.00000000       3.96762862      -1.54295244       0.00000000
H        1.07840868       0.00000000       0.00000000      -4.44871176       0.68092943       0.00000000
H       -0.36474592       0.87282388       0.00000000       0.48108314       0.86202301       0.00000000
3
Lattice="15.0 0.0 0.0 0.0 15.0 0.0 0.0 0.0 15.0" Properties=species:S:1:pos:R:3:forces:R:3 energy=0.2399533433 pbc="T T T"
O        0.00000000       0.00000000       0.00000000      -3.14997330      -2.59742539       0.00000000
H        0.89494562       0.00000000       0.00000000       4.37972379      -0.68802414       0.00000000
H       -0.14750338       0.89478242       0.00000000      -1.22975048       3.28544952       0.00000000
3
Lattice="15.0 0.0 0.0 0.0 15.0 0.0 0.0 0.0 15.0" Properties=species:S:1:pos:R:3:forces:R:3 energy=0.3334251128 pbc="T T T"
O        0.00000000       0.00000000       0.00000000      -6.31863170       0.37566812       0.00000000
H        0.86542488       0.00000000       0.00000000       7.08894038      -0.77580647       0.00000000
H       -0.13696443       0.94274800       0.00000000      -0.77030863       0.40013835       0.00000000
3
Lattice="15.0 0.0 0.0 0.0 15.0 0.0 0.0 0.0 15.0" Properties=species:S:1:pos:R:3:forces:R:3 energy=0.1502083964 pbc="T T T"
O        0.00000000       0.00000000       0.00000000      -1.27408501       1.95540684       0.00000000
H        0.96388133       0.00000000       0.00000000      -0.38626025       0.63461726       0.00000000
H       -0.37609283       0.95509367       0.00000000       1.66034526      -2.59002410       0.00000000
3
Lattice="15.0 0.0 0.0 0.0 15.0 0.0 0.0 0.0 15.0" Properties=species:S:1:pos:R:3:forces:R:3 energy=0.1706414506 pbc="T T T"
O        0.00000000       0.00000000       0.00000000      -2.78564545      -2.98286736       0.00000000
H        0.90321881       0.00000000       0.00000000       3.32244484       0.46930250       0.00000000
H       -0.34897909       0.84444722       0.00000000      -0.53679939       2.51356486       0.00000000
3
Lattice="15.0 0.0 0.0 0.0 15.0 0.0 0.0 0.0 15.0" Properties=species:S:1:pos:R:3:forces:R:3 energy=0.0157338221 pbc="T T T"
O        0.00000000       0.00000000       0.00000000       1.17899349      -0.04585549       0.00000000
H        0.98401077       0.00000000       0.00000000      -1.21535687       0.03658085       0.00000000
H       -0.23621253       0.92964647       0.00000000       0.03636344       0.00927464       0.00000000
3
Lattice="15.0 0.0 0.0 0.0 15.0 0.0 0.0 0.0 15.0" Properties=species:S:1:pos:R:3:forces:R:3 energy=0.7544810165 pbc="T T T"
O        0.00000000       0.00000000       0.00000000      -6.07092178      -2.41073539       0.00000000
H        0.86138277       0.00000000       0.00000000       7.97746561      -2.27537040       0.00000000
H        0.05286764       0.89807612       0.00000000      -1.90654383       4.68610579       0.00000000
3
Lattice="15.0 0.0 0.0 0.0 15.0 0.0 0.0 0.0 15.0" Properties=species:S:1:pos:R:3:forces:R:3 energy=0.6005256967 pbc="T T T"
O        0.00000000       0.00000000       0.00000000      -5.55926322      -6.04223114       0.00000000
H        0.85677741       0.00000000       0.00000000       7.60256018       0.00399735       0.00000000
H       -0.27899085       0.82278161       0.00000000      -2.04329696       6.03823379       0.00000000
3
Lattice="15.0 0.0 0.0 0.0 15.0 0.0 0.0 0.0 15.0" Properties=species:S:1:pos:R:3:forces:R:3 energy=0.1448381858 pbc="T T T"
O        0.00000000       0.00000000       0.00000000       0.44660253       3.15080074       0.00000000
H        0.96330829       0.00000000       0.00000000       0.09688050      -0.75013544       0.00000000
H       -0.07026968       1.01919971       0.00000000      -0.54348303      -2.40066530       0.00000000
3