3
Lattice="15.0 0.0 0.0 0.0 15.0 0.0 0.0 0.0 15.0" Properties=species:S:1:pos:R:3:forces:R:3 energy=0.9285151908 pbc="T T T"
O        0.00000000       0.00000000       0.00000000      -5.10119532      -6.06074515       0.00000000
H        0.87148370       0.00000000       0.00000000       7.00469964      -2.31996965       0.00000000
H        0.04649089       0.85746526       0.00000000      -1.90350437       8.38071479       0.00000000
3
Lattice="15.0 0.0 0.0 0.0 15.0 0.0 0.0 0.0 15.0" Properties=species:S:1:pos:R:3:forces:R:3 energy=0.0129901606 pbc="T T T"
O        0.00000000       0.00000000       0.00000000       0.45171028       0.30359940       0.00000000
H        0.97405750       0.00000000       0.00000000      -0.81102685       0.20107594       0.00000000
H       -0.27398716       0.92991549       0.00000000       0.35931662      -0.50467529       0.00000000
3
Lattice="15.0 0.0 0.0 0.0 15.0 0.0 0.0 0.0 15.0" Properties=species:S:1:pos:R:3:forces:R:3 energy=0.0098163769 pbc="T T T"
O        0.00000000       0.00000000       0.00000000      -0.31920508      -0.20992908       0.00000000
H        0.94834284       0.00000000       0.00000000       0.64511133      -0.22874627       0.00000000
H       -0.19670128       0.93038371       0.00000000      -0.32590630       0.43867535       0.00000000
3
Lattice="15.0 0.0 0.0 0.0 15.0 0.0 0.0 0.0 15.0" Properties=species:S:1:pos:R:3:forces:R:3 energy=0.4013227699 pbc="T T T"
O        0.00000000       0.00000000       0.00000000       1.25908817      -7.86398072       0.00000000
H        0.93292284       0.00000000       0.00000000       1.26340500       0.21942792       0.00000000
H       -0.29123463       0.80144885       0.00000000      -2.52249312       7.64455285       0.00000000
3
Lattice="15.0 0.0 0.0 0.0 15.0 0.0 0.0 0.0 15.0" Properties=species:S:1:pos:R:3:forces:R:3 energy=0.6589949215 pbc="T T T"
O        0.00000000       0.00000000       0.00000000       5.70595984       1.86876921       0.00000000
H        1.11395071       0.00000000       0.00000000      -4.23707665      -1.23417659       0.00000000
H        0.10843556       0.98280401       0.00000000      -1.46888319      -0.63459263       0.00000000
