 3
 energy=5.4954256520905016 cutoff=3.63000000 nneightol=1.20000000 pbc="T T T" Lattice="15.00000000       0.00000000       0.00000000       0.00000000      15.00000000       0.00000000       0.00000000       0.00000000      15.00000000" Properties=species:S:1:pos:R:3:Z:I:1:map_shift:I:3:n_neighb:I:1
 O               0.00000000      0.00000000      0.00000000       8       0       0       0       2
 H               0.95883000      0.00000000      0.00000000       1       0       0       0       2
 H               0.35000000      0.60622000      0.00000000       1       0       0       0       2
 3
 energy=4.3297705739861820 cutoff=3.63000000 nneightol=1.20000000 pbc="T T T" Lattice="15.00000000       0.00000000       0.00000000       0.00000000      15.00000000       0.00000000       0.00000000       0.00000000      15.00000000" Properties=species:S:1:pos:R:3:Z:I:1:map_shift:I:3:n_neighb:I:1
 O               0.00000000      0.00000000      0.00000000       8       0       0       0       2
 H               0.95883000      0.00000000      0.00000000       1       0       0       0       2
 H               0.36842000      0.63812000      0.00000000       1       0       0       0       2
 3
 energy=3.4472634097373840 cutoff=3.63000000 nneightol=1.20000000 pbc="T T T" Lattice="15.00000000       0.00000000       0.00000000       0.00000000      15.00000000       0.00000000       0.00000000       0.00000000      15.00000000" Properties=species:S:1:pos:R:3:Z:I:1:map_shift:I:3:n_neighb:I:1
 O               0.00000000      0.00000000      0.00000000       8       0       0       0       2
 H               0.95883000      0.00000000      0.00000000       1       0       0       0       2
 H               0.38684000      0.67003000      0.00000000       1       0       0       0       2
 3
 energy=2.7917514410610096 cutoff=3.63000000 nneightol=1.20000000 pbc="T T T" Lattice="15.00000000       0.00000000       0.00000000       0.00000000      15.00000000       0.00000000       0.00000000       0.00000000      15.00000000" Properties=species:S:1:pos:R:3:Z:I:1:map_shift:I:3:n_neighb:I:1
 O               0.00000000      0.00000000      0.00000000       8       0       0       0       2
 H               0.95883000      0.00000000      0.00000000       1       0       0       0       2
 H               0.40527000      0.70194000      0.00000000       1       0       0       0       2
 3
 energy=2.3169077478528850 cutoff=3.63000000 nneightol=1.20000000 pbc="T T T" Lattice="15.00000000       0.00000000       0.00000000       0.00000000      15.00000000       0.00000000       0.00000000       0.00000000      15.00000000" Properties=species:S:1:pos:R:3:Z:I:1:map_shift:I:3:n_neighb:I:1
 O               0.00000000      0.00000000      0.00000000       8       0       0       0       2
 H               0.95883000      0.00000000      0.00000000       1       0       0       0       2
 H               0.42369000      0.73384000      0.00000000       1       0       0       0       2
 3
 energy=1.9856060797357831 cutoff=3.63000000 nneightol=1.20000000 pbc="T T T" Lattice="15.00000000       0.00000000       0.00000000       0.00000000      15.00000000       0.00000000       0.00000000       0.00000000      15.00000000" Properties=species:S:1:pos:R:3:Z:I:1:map_shift:I:3:n_neighb:I:1
 O               0.00000000      0.00000000      0.00000000       8       0       0       0       2
 H               0.95883000      0.00000000      0.00000000       1       0       0       0       2
 H               0.44211000      0.76575000      0.00000000       1       0       0       0       2
 3
 energy=1.7691730377879207 cutoff=3.63000000 nneightol=1.20000000 pbc="T T T" Lattice="15.00000000       0.00000000       0.00000000       0.00000000      15.00000000       0.00000000       0.00000000       0.00000000      15.00000000" Properties=species:S:1:pos:R:3:Z:I:1:map_shift:I:3:n_neighb:I:1
 O               0.00000000      0.00000000      0.00000000       8       0       0       0       2
 H               0.95883000      0.00000000      0.00000000       1       0       0       0       2
 H               0.46053000      0.79765000      0.00000000       1       0       0       0       2
 3
 energy=1.6443090029939045 cutoff=3.63000000 nneightol=1.20000000 pbc="T T T" Lattice="15.00000000       0.00000000       0.00000000       0.00000000      15.00000000       0.00000000       0.00000000       0.00000000      15.00000000" Properties=species:S:1:pos:R:3:Z:I:1:map_shift:I:3:n_neighb:I:1
 O               0.00000000      0.00000000      0.00000000       8       0       0       0       2
 H               0.95883000      0.00000000      0.00000000       1       0       0       0       2
 H               0.47895000      0.82956000      0.00000000       1       0       0       0       2
 3
 energy=1.5920130294337085 cutoff=3.63000000 nneightol=1.20000000 pbc="T T T" Lattice="15.00000000       0.00000000       0.00000000       0.00000000      15.00000000       0.00000000       0.00000000       0.00000000      15.00000000" Properties=species:S:1:pos:R:3:Z:I:1:map_shift:I:3:n_neighb:I:1
 O               0.00000000      0.00000000      0.00000000       8       0       0       0       2
 H               0.95883000      0.00000000      0.00000000       1       0       0       0       2
 H               0.49737000      0.86147000      0.00000000       1       0       0       0       2
 3
 energy=1.5962577873588257 cutoff=3.63000000 nneightol=1.20000000 pbc="T T T" Lattice="15.00000000       0.00000000       0.00000000       0.00000000      15.00000000       0.00000000       0.00000000       0.00000000      15.00000000" Properties=species:S:1:pos:R:3:Z:I:1:map_shift:I:3:n_neighb:I:1
 O               0.00000000      0.00000000      0.00000000       8       0       0       0       2
 H               0.95883000      0.00000000      0.00000000       1       0       0       0       2
 H               0.51579000      0.89337000      0.00000000       1       0       0       0       2
 3
 energy=1.6435709566626144 cutoff=3.63000000 nneightol=1.20000000 pbc="T T T" Lattice="15.00000000       0.00000000       0.00000000       0.00000000      15.00000000       0.00000000       0.00000000       0.00000000      15.00000000" Properties=species:S:1:pos:R:3:Z:I:1:map_shift:I:3:n_neighb:I:1
 O               0.00000000      0.00000000      0.00000000       8       0       0       0       2
 H               0.95883000      0.00000000      0.00000000       1       0       0       0       2
 H               0.53421000      0.92528000      0.00000000       1       0       0       0       2
 3
 energy=1.7230182656393715 cutoff=3.63000000 nneightol=1.20000000 pbc="T T T" Lattice="15.00000000       0.00000000       0.00000000       0.00000000      15.00000000       0.00000000       0.00000000       0.00000000      15.00000000" Properties=species:S:1:pos:R:3:Z:I:1:map_shift:I:3:n_neighb:I:1
 O               0.00000000      0.00000000      0.00000000       8       0       0       0       2
 H               0.95883000      0.00000000      0.00000000       1       0       0       0       2
 H               0.55263000      0.95718000      0.00000000       1       0       0       0       2
 3
 energy=1.8260830109662516 cutoff=3.63000000 nneightol=1.20000000 pbc="T T T" Lattice="15.00000000       0.00000000       0.00000000       0.00000000      15.00000000       0.00000000       0.00000000       0.00000000      15.00000000" Properties=species:S:1:pos:R:3:Z:I:1:map_shift:I:3:n_neighb:I:1
 O               0.00000000      0.00000000      0.00000000       8       0       0       0       2
 H               0.95883000      0.00000000      0.00000000       1       0       0       0       2
 H               0.57106000      0.98910000      0.00000000       1       0       0       0       2
 3
 energy=1.9462798492258528 cutoff=3.63000000 nneightol=1.20000000 pbc="T T T" Lattice="15.00000000       0.00000000       0.00000000       0.00000000      15.00000000       0.00000000       0.00000000       0.00000000      15.00000000" Properties=species:S:1:pos:R:3:Z:I:1:map_shift:I:3:n_neighb:I:1
 O               0.00000000      0.00000000      0.00000000       8       0       0       0       2
 H               0.95883000      0.00000000      0.00000000       1       0       0       0       2
 H               0.58948000      1.02100000      0.00000000       1       0       0       0       2
 3
 energy=2.0791511335944088 cutoff=3.63000000 nneightol=1.20000000 pbc="T T T" Lattice="15.00000000       0.00000000       0.00000000       0.00000000      15.00000000       0.00000000       0.00000000       0.00000000      15.00000000" Properties=species:S:1:pos:R:3:Z:I:1:map_shift:I:3:n_neighb:I:1
 O               0.00000000      0.00000000      0.00000000       8       0       0       0       2
 H               0.95883000      0.00000000      0.00000000       1       0       0       0       2
 H               0.60790000      1.05291000      0.00000000       1       0       0       0       2
 3
 energy=2.2214683890856914 cutoff=3.63000000 nneightol=1.20000000 pbc="T T T" Lattice="15.00000000       0.00000000       0.00000000       0.00000000      15.00000000       0.00000000       0.00000000       0.00000000      15.00000000" Properties=species:S:1:pos:R:3:Z:I:1:map_shift:I:3:n_neighb:I:1
 O               0.00000000      0.00000000      0.00000000       8       0       0       0       2
 H               0.95883000      0.00000000      0.00000000       1       0       0       0       2
 H               0.62632000      1.08481000      0.00000000       1       0       0       0       2
 3
 energy=2.3708053921480774 cutoff=3.63000000 nneightol=1.20000000 pbc="T T T" Lattice="15.00000000       0.00000000       0.00000000       0.00000000      15.00000000       0.00000000       0.00000000       0.00000000      15.00000000" Properties=species:S:1:pos:R:3:Z:I:1:map_shift:I:3:n_neighb:I:1
 O               0.00000000      0.00000000      0.00000000       8       0       0       0       2
 H               0.95883000      0.00000000      0.00000000       1       0       0       0       2
 H               0.64474000      1.11671000      0.00000000       1       0       0       0       2
 3
 energy=2.5249988294489132 cutoff=3.63000000 nneightol=1.20000000 pbc="T T T" Lattice="15.00000000       0.00000000       0.00000000       0.00000000      15.00000000       0.00000000       0.00000000       0.00000000      15.00000000" Properties=species:S:1:pos:R:3:Z:I:1:map_shift:I:3:n_neighb:I:1
 O               0.00000000      0.00000000      0.00000000       8       0       0       0       2
 H               0.95883000      0.00000000      0.00000000       1       0       0       0       2
 H               0.66316000      1.14863000      0.00000000       1       0       0       0       2
 3
 energy=2.6815791058575549 cutoff=3.63000000 nneightol=1.20000000 pbc="T T T" Lattice="15.00000000       0.00000000       0.00000000       0.00000000      15.00000000       0.00000000       0.00000000       0.00000000      15.00000000" Properties=species:S:1:pos:R:3:Z:I:1:map_shift:I:3:n_neighb:I:1
 O               0.00000000      0.00000000      0.00000000       8       0       0       0       2
 H               0.95883000      0.00000000      0.00000000       1       0       0       0       2
 H               0.68158000      1.18053000      0.00000000       1       0       0       0       2
 3
 energy=2.8379374109941811 cutoff=3.63000000 nneightol=1.20000000 pbc="T T T" Lattice="15.00000000       0.00000000       0.00000000       0.00000000      15.00000000       0.00000000       0.00000000       0.00000000      15.00000000" Properties=species:S:1:pos:R:3:Z:I:1:map_shift:I:3:n_neighb:I:1
 O               0.00000000      0.00000000      0.00000000       8       0       0       0       2
 H               0.95883000      0.00000000      0.00000000       1       0       0       0       2
 H               0.70000000      1.21244000      0.00000000       1       0       0       0       2
 3
 energy=5.2592222474102552 cutoff=3.63000000 nneightol=1.20000000 pbc="T T T" Lattice="15.00000000       0.00000000       0.00000000       0.00000000      15.00000000       0.00000000       0.00000000       0.00000000      15.00000000" Properties=species:S:1:pos:R:3:Z:I:1:map_shift:I:3:n_neighb:I:1
 O               0.00000000      0.00000000      0.00000000       8       0       0       0       2
 H               0.95883000      0.00000000      0.00000000       1       0       0       0       2
 H               0.31667000      0.62428000      0.00000000       1       0       0       0       2
 3
 energy=4.0769832474778172 cutoff=3.63000000 nneightol=1.20000000 pbc="T T T" Lattice="15.00000000       0.00000000       0.00000000       0.00000000      15.00000000       0.00000000       0.00000000       0.00000000      15.00000000" Properties=species:S:1:pos:R:3:Z:I:1:map_shift:I:3:n_neighb:I:1
 O               0.00000000      0.00000000      0.00000000       8       0       0       0       2
 H               0.95883000      0.00000000      0.00000000       1       0       0       0       2
 H               0.33333000      0.65713000      0.00000000       1       0       0       0       2
 3
 energy=3.1852874469177457 cutoff=3.63000000 nneightol=1.20000000 pbc="T T T" Lattice="15.00000000       0.00000000       0.00000000       0.00000000      15.00000000       0.00000000       0.00000000       0.00000000      15.00000000" Properties=species:S:1:pos:R:3:Z:I:1:map_shift:I:3:n_neighb:I:1
 O               0.00000000      0.00000000      0.00000000       8       0       0       0       2
 H               0.95883000      0.00000000      0.00000000       1       0       0       0       2
 H               0.35000000      0.68999000      0.00000000       1       0       0       0       2
 3
 energy=2.5264425945186320 cutoff=3.63000000 nneightol=1.20000000 pbc="T T T" Lattice="15.00000000       0.00000000       0.00000000       0.00000000      15.00000000       0.00000000       0.00000000       0.00000000      15.00000000" Properties=species:S:1:pos:R:3:Z:I:1:map_shift:I:3:n_neighb:I:1
 O               0.00000000      0.00000000      0.00000000       8       0       0       0       2
 H               0.95883000      0.00000000      0.00000000       1       0       0       0       2
 H               0.36667000      0.72285000      0.00000000       1       0       0       0       2
 3
 energy=2.0523485431997139 cutoff=3.63000000 nneightol=1.20000000 pbc="T T T" Lattice="15.00000000       0.00000000       0.00000000       0.00000000      15.00000000       0.00000000       0.00000000       0.00000000      15.00000000" Properties=species:S:1:pos:R:3:Z:I:1:map_shift:I:3:n_neighb:I:1
 O               0.00000000      0.00000000      0.00000000       8       0       0       0       2
 H               0.95883000      0.00000000      0.00000000       1       0       0       0       2
 H               0.38333000      0.75571000      0.00000000       1       0       0       0       2
 3
 energy=1.7249911585566906 cutoff=3.63000000 nneightol=1.20000000 pbc="T T T" Lattice="15.00000000       0.00000000       0.00000000       0.00000000      15.00000000       0.00000000       0.00000000       0.00000000      15.00000000" Properties=species:S:1:pos:R:3:Z:I:1:map_shift:I:3:n_neighb:I:1
 O               0.00000000      0.00000000      0.00000000       8       0       0       0       2
 H               0.95883000      0.00000000      0.00000000       1       0       0       0       2
 H               0.40000000      0.78856000      0.00000000       1       0       0       0       2
 3
 energy=1.5143348730308759 cutoff=3.63000000 nneightol=1.20000000 pbc="T T T" Lattice="15.00000000       0.00000000       0.00000000       0.00000000      15.00000000       0.00000000       0.00000000       0.00000000      15.00000000" Properties=species:S:1:pos:R:3:Z:I:1:map_shift:I:3:n_neighb:I:1
 O               0.00000000      0.00000000      0.00000000       8       0       0       0       2
 H               0.95883000      0.00000000      0.00000000       1       0       0       0       2
 H               0.41667000      0.82142000      0.00000000       1       0       0       0       2
 3
 energy=1.3967193032725245 cutoff=3.63000000 nneightol=1.20000000 pbc="T T T" Lattice="15.00000000       0.00000000       0.00000000       0.00000000      15.00000000       0.00000000       0.00000000       0.00000000      15.00000000" Properties=species:S:1:pos:R:3:Z:I:1:map_shift:I:3:n_neighb:I:1
 O               0.00000000      0.00000000      0.00000000       8       0       0       0       2
 H               0.95883000      0.00000000      0.00000000       1       0       0       0       2
 H               0.43333000      0.85427000      0.00000000       1       0       0       0       2
 3
 energy=1.3526120746275501 cutoff=3.63000000 nneightol=1.20000000 pbc="T T T" Lattice="15.00000000       0.00000000       0.00000000       0.00000000      15.00000000       0.00000000       0.00000000       0.00000000      15.00000000" Properties=species:S:1:pos:R:3:Z:I:1:map_shift:I:3:n_neighb:I:1
 O               0.00000000      0.00000000      0.00000000       8       0       0       0       2
 H               0.95883000      0.00000000      0.00000000       1       0       0       0       2
 H               0.45000000      0.88713000      0.00000000       1       0       0       0       2
 3
 energy=1.3657809123619815 cutoff=3.63000000 nneightol=1.20000000 pbc="T T T" Lattice="15.00000000       0.00000000       0.00000000       0.00000000      15.00000000       0.00000000       0.00000000       0.00000000      15.00000000" Properties=species:S:1:pos:R:3:Z:I:1:map_shift:I:3:n_neighb:I:1
 O               0.00000000      0.00000000      0.00000000       8       0       0       0       2
 H               0.95883000      0.00000000      0.00000000       1       0       0       0       2
 H               0.46667000      0.91999000      0.00000000       1       0       0       0       2
 3
 energy=1.4226412851136931 cutoff=3.63000000 nneightol=1.20000000 pbc="T T T" Lattice="15.00000000       0.00000000       0.00000000       0.00000000      15.00000000       0.00000000       0.00000000       0.00000000      15.00000000" Properties=species:S:1:pos:R:3:Z:I:1:map_shift:I:3:n_neighb:I:1
 O               0.00000000      0.00000000      0.00000000       8       0       0       0       2
 H               0.95883000      0.00000000      0.00000000       1       0       0       0       2
 H               0.48333000      0.95284000      0.00000000       1       0       0       0       2
 3
 energy=1.5122654602969634 cutoff=3.63000000 nneightol=1.20000000 pbc="T T T" Lattice="15.00000000       0.00000000       0.00000000       0.00000000      15.00000000       0.00000000       0.00000000       0.00000000      15.00000000" Properties=species:S:1:pos:R:3:Z:I:1:map_shift:I:3:n_neighb:I:1
 O               0.00000000      0.00000000      0.00000000       8       0       0       0       2
 H               0.95883000      0.00000000      0.00000000       1       0       0       0       2
 H               0.50000000      0.98570000      0.00000000       1       0       0       0       2
 3
 energy=1.6260182957162943 cutoff=3.63000000 nneightol=1.20000000 pbc="T T T" Lattice="15.00000000       0.00000000       0.00000000       0.00000000      15.00000000       0.00000000       0.00000000       0.00000000      15.00000000" Properties=species:S:1:pos:R:3:Z:I:1:map_shift:I:3:n_neighb:I:1
 O               0.00000000      0.00000000      0.00000000       8       0       0       0       2
 H               0.95883000      0.00000000      0.00000000       1       0       0       0       2
 H               0.51667000      1.01856000      0.00000000       1       0       0       0       2
 3
 energy=1.7574189991239741 cutoff=3.63000000 nneightol=1.20000000 pbc="T T T" Lattice="15.00000000       0.00000000       0.00000000       0.00000000      15.00000000       0.00000000       0.00000000       0.00000000      15.00000000" Properties=species:S:1:pos:R:3:Z:I:1:map_shift:I:3:n_neighb:I:1
 O               0.00000000      0.00000000      0.00000000       8       0       0       0       2
 H               0.95883000      0.00000000      0.00000000       1       0       0       0       2
 H               0.53333000      1.05142000      0.00000000       1       0       0       0       2
 3
 energy=1.9018590130139463 cutoff=3.63000000 nneightol=1.20000000 pbc="T T T" Lattice="15.00000000       0.00000000       0.00000000       0.00000000      15.00000000       0.00000000       0.00000000       0.00000000      15.00000000" Properties=species:S:1:pos:R:3:Z:I:1:map_shift:I:3:n_neighb:I:1
 O               0.00000000      0.00000000      0.00000000       8       0       0       0       2
 H               0.95883000      0.00000000      0.00000000       1       0       0       0       2
 H               0.55000000      1.08427000      0.00000000       1       0       0       0       2
 3
 energy=2.0559195429639203 cutoff=3.63000000 nneightol=1.20000000 pbc="T T T" Lattice="15.00000000       0.00000000       0.00000000       0.00000000      15.00000000       0.00000000       0.00000000       0.00000000      15.00000000" Properties=species:S:1:pos:R:3:Z:I:1:map_shift:I:3:n_neighb:I:1
 O               0.00000000      0.00000000      0.00000000       8       0       0       0       2
 H               0.95883000      0.00000000      0.00000000       1       0       0       0       2
 H               0.56667000      1.11713000      0.00000000       1       0       0       0       2
 3
 energy=2.2167662536292232 cutoff=3.63000000 nneightol=1.20000000 pbc="T T T" Lattice="15.00000000       0.00000000       0.00000000       0.00000000      15.00000000       0.00000000       0.00000000       0.00000000      15.00000000" Properties=species:S:1:pos:R:3:Z:I:1:map_shift:I:3:n_neighb:I:1
 O               0.00000000      0.00000000      0.00000000       8       0       0       0       2
 H               0.95883000      0.00000000      0.00000000       1       0       0       0       2
 H               0.58333000      1.14998000      0.00000000       1       0       0       0       2
 3
 energy=2.3820106607447151 cutoff=3.63000000 nneightol=1.20000000 pbc="T T T" Lattice="15.00000000       0.00000000       0.00000000       0.00000000      15.00000000       0.00000000       0.00000000       0.00000000      15.00000000" Properties=species:S:1:pos:R:3:Z:I:1:map_shift:I:3:n_neighb:I:1
 O               0.00000000      0.00000000      0.00000000       8       0       0       0       2
 H               0.95883000      0.00000000      0.00000000       1       0       0       0       2
 H               0.60000000      1.18285000      0.00000000       1       0       0       0       2
 3
 energy=2.5488006598963766 cutoff=3.63000000 nneightol=1.20000000 pbc="T T T" Lattice="15.00000000       0.00000000       0.00000000       0.00000000      15.00000000       0.00000000       0.00000000       0.00000000      15.00000000" Properties=species:S:1:pos:R:3:Z:I:1:map_shift:I:3:n_neighb:I:1
 O               0.00000000      0.00000000      0.00000000       8       0       0       0       2
 H               0.95883000      0.00000000      0.00000000       1       0       0       0       2
 H               0.61667000      1.21570000      0.00000000       1       0       0       0       2
 3
 energy=2.7142412817941572 cutoff=3.63000000 nneightol=1.20000000 pbc="T T T" Lattice="15.00000000       0.00000000       0.00000000       0.00000000      15.00000000       0.00000000       0.00000000       0.00000000      15.00000000" Properties=species:S:1:pos:R:3:Z:I:1:map_shift:I:3:n_neighb:I:1
 O               0.00000000      0.00000000      0.00000000       8       0       0       0       2
 H               0.95883000      0.00000000      0.00000000       1       0       0       0       2
 H               0.63333000      1.24855000      0.00000000       1       0       0       0       2
 3
 energy=5.0235623375246838 cutoff=3.63000000 nneightol=1.20000000 pbc="T T T" Lattice="15.00000000       0.00000000       0.00000000       0.00000000      15.00000000       0.00000000       0.00000000       0.00000000      15.00000000" Properties=species:S:1:pos:R:3:Z:I:1:map_shift:I:3:n_neighb:I:1
 O               0.00000000      0.00000000      0.00000000       8       0       0       0       2
 H               0.95883000      0.00000000      0.00000000       1       0       0       0       2
 H               0.28240000      0.64051000      0.00000000       1       0       0       0       2
 3
 energy=3.8295980118116160 cutoff=3.63000000 nneightol=1.20000000 pbc="T T T" Lattice="15.00000000       0.00000000       0.00000000       0.00000000      15.00000000       0.00000000       0.00000000       0.00000000      15.00000000" Properties=species:S:1:pos:R:3:Z:I:1:map_shift:I:3:n_neighb:I:1
 O               0.00000000      0.00000000      0.00000000       8       0       0       0       2
 H               0.95883000      0.00000000      0.00000000       1       0       0       0       2
 H               0.29727000      0.67421000      0.00000000       1       0       0       0       2
 3
 energy=2.9335103140784820 cutoff=3.63000000 nneightol=1.20000000 pbc="T T T" Lattice="15.00000000       0.00000000       0.00000000       0.00000000      15.00000000       0.00000000       0.00000000       0.00000000      15.00000000" Properties=species:S:1:pos:R:3:Z:I:1:map_shift:I:3:n_neighb:I:1
 O               0.00000000      0.00000000      0.00000000       8       0       0       0       2
 H               0.95883000      0.00000000      0.00000000       1       0       0       0       2
 H               0.31213000      0.70792000      0.00000000       1       0       0       0       2
 3
 energy=2.2753559917181509 cutoff=3.63000000 nneightol=1.20000000 pbc="T T T" Lattice="15.00000000       0.00000000       0.00000000       0.00000000      15.00000000       0.00000000       0.00000000       0.00000000      15.00000000" Properties=species:S:1:pos:R:3:Z:I:1:map_shift:I:3:n_neighb:I:1
 O               0.00000000      0.00000000      0.00000000       8       0       0       0       2
 H               0.95883000      0.00000000      0.00000000       1       0       0       0       2
 H               0.32700000      0.74164000      0.00000000       1       0       0       0       2
 3
 energy=1.8057087728609416 cutoff=3.63000000 nneightol=1.20000000 pbc="T T T" Lattice="15.00000000       0.00000000       0.00000000       0.00000000      15.00000000       0.00000000       0.00000000       0.00000000      15.00000000" Properties=species:S:1:pos:R:3:Z:I:1:map_shift:I:3:n_neighb:I:1
 O               0.00000000      0.00000000      0.00000000       8       0       0       0       2
 H               0.95883000      0.00000000      0.00000000       1       0       0       0       2
 H               0.34186000      0.77535000      0.00000000       1       0       0       0       2
 3
 energy=1.4848805604611810 cutoff=3.63000000 nneightol=1.20000000 pbc="T T T" Lattice="15.00000000       0.00000000       0.00000000       0.00000000      15.00000000       0.00000000       0.00000000       0.00000000      15.00000000" Properties=species:S:1:pos:R:3:Z:I:1:map_shift:I:3:n_neighb:I:1
 O               0.00000000      0.00000000      0.00000000       8       0       0       0       2
 H               0.95883000      0.00000000      0.00000000       1       0       0       0       2
 H               0.35672000      0.80906000      0.00000000       1       0       0       0       2
 3
 energy=1.2820900166872793 cutoff=3.63000000 nneightol=1.20000000 pbc="T T T" Lattice="15.00000000       0.00000000       0.00000000       0.00000000      15.00000000       0.00000000       0.00000000       0.00000000      15.00000000" Properties=species:S:1:pos:R:3:Z:I:1:map_shift:I:3:n_neighb:I:1
 O               0.00000000      0.00000000      0.00000000       8       0       0       0       2
 H               0.95883000      0.00000000      0.00000000       1       0       0       0       2
 H               0.37158000      0.84277000      0.00000000       1       0       0       0       2
 3
 energy=1.1730081154896199 cutoff=3.63000000 nneightol=1.20000000 pbc="T T T" Lattice="15.00000000       0.00000000       0.00000000       0.00000000      15.00000000       0.00000000       0.00000000       0.00000000      15.00000000" Properties=species:S:1:pos:R:3:Z:I:1:map_shift:I:3:n_neighb:I:1
 O               0.00000000      0.00000000      0.00000000       8       0       0       0       2
 H               0.95883000      0.00000000      0.00000000       1       0       0       0       2
 H               0.38645000      0.87648000      0.00000000       1       0       0       0       2
 3
 energy=1.1377686826820437 cutoff=3.63000000 nneightol=1.20000000 pbc="T T T" Lattice="15.00000000       0.00000000       0.00000000       0.00000000      15.00000000       0.00000000       0.00000000       0.00000000      15.00000000" Properties=species:S:1:pos:R:3:Z:I:1:map_shift:I:3:n_neighb:I:1
 O               0.00000000      0.00000000      0.00000000       8       0       0       0       2
 H               0.95883000      0.00000000      0.00000000       1       0       0       0       2
 H               0.40131000      0.91020000      0.00000000       1       0       0       0       2
 3
 energy=1.1600861280503318 cutoff=3.63000000 nneightol=1.20000000 pbc="T T T" Lattice="15.00000000       0.00000000       0.00000000       0.00000000      15.00000000       0.00000000       0.00000000       0.00000000      15.00000000" Properties=species:S:1:pos:R:3:Z:I:1:map_shift:I:3:n_neighb:I:1
 O               0.00000000      0.00000000      0.00000000       8       0       0       0       2