3
Lattice="15.0 0.0 0.0 0.0 15.0 0.0 0.0 0.0 15.0" Properties=species:S:1:pos:R:3 energy=-76.3575310289 pbc="T T T"
O        0.00000000       0.00000000       0.00000000
H        0.95883163       0.00000000       0.00000000
H       -0.23751797       0.92894742       0.00000000
3
Lattice="15.0 0.0 0.0 0.0 15.0 0.0 0.0 0.0 15.0" Properties=species:S:1:pos:R:3 energy=-76.3174372515 pbc="T T T"
O   	    0.00000	    0.00000	    0.00000
H   	    0.95883	    0.00000	    0.00000
H   	    0.36693	    0.88584	    0.00000
3
Lattice="15.0 0.0 0.0 0.0 15.0 0.0 0.0 0.0 15.0" Properties=species:S:1:pos:R:3 energy=-76.3305254747 pbc="T T T"
O   	    0.00000	    0.00000	    0.00000
H   	    0.95883	    0.00000	    0.00000
H   	    0.27047	    0.91989	    0.00000
3
Lattice="15.0 0.0 0.0 0.0 15.0 0.0 0.0 0.0 15.0" Properties=species:S:1:pos:R:3 energy=-76.3407308820 pbc="T T T"
O   	    0.00000	    0.00000	    0.00000
H   	    0.95883	    0.00000	    0.00000
H   	    0.17093	    0.94347	    0.00000
3
Lattice="15.0 0.0 0.0 0.0 15.0 0.0 0.0 0.0 15.0" Properties=species:S:1:pos:R:3 energy=-76.3483282933 pbc="T T T"
O   	    0.00000	    0.00000	    0.00000
H   	    0.95883	    0.00000	    0.00000
H   	    0.06945	    0.95631	    0.00000
3
Lattice="15.0 0.0 0.0 0.0 15.0 0.0 0.0 0.0 15.0" Properties=species:S:1:pos:R:3 energy=-76.3535340007 pbc="T T T"
O   	    0.00000	    0.00000	    0.00000
H   	    0.95883	    0.00000	    0.00000
H   	   -0.03282	    0.95827	    0.00000
3
Lattice="15.0 0.0 0.0 0.0 15.0 0.0 0.0 0.0 15.0" Properties=species:S:1:pos:R:3 energy=-76.3565397373 pbc="T T T"
O   	    0.00000	    0.00000	    0.00000
H   	    0.95883	    0.00000	    0.00000
H   	   -0.13472	    0.94932	    0.00000
3
Lattice="15.0 0.0 0.0 0.0 15.0 0.0 0.0 0.0 15.0" Properties=species:S:1:pos:R:3 energy=-76.3575304695 pbc="T T T"
O   	    0.00000	    0.00000	    0.00000
H   	    0.95883	    0.00000	    0.00000
H   	   -0.23508	    0.92956	    0.00000
3
Lattice="15.0 0.0 0.0 0.0 15.0 0.0 0.0 0.0 15.0" Properties=species:S:1:pos:R:3 energy=-76.3566933972 pbc="T T T"
O   	    0.00000	    0.00000	    0.00000
H   	    0.95883	    0.00000	    0.00000
H   	   -0.33277	    0.89923	    0.00000
3
Lattice="15.0 0.0 0.0 0.0 15.0 0.0 0.0 0.0 15.0" Properties=species:S:1:pos:R:3 energy=-76.3542256446 pbc="T T T"
O   	    0.00000	    0.00000	    0.00000
H   	    0.95883	    0.00000	    0.00000
H   	   -0.42668	    0.85866	    0.00000
3
Lattice="15.0 0.0 0.0 0.0 15.0 0.0 0.0 0.0 15.0" Properties=species:S:1:pos:R:3 energy=-76.3503480607 pbc="T T T"
O   	    0.00000	    0.00000	    0.00000
H   	    0.95883	    0.00000	    0.00000
H   	   -0.51572	    0.80832	    0.00000
3
Lattice="15.0 0.0 0.0 0.0 15.0 0.0 0.0 0.0 15.0" Properties=species:S:1:pos:R:3 energy=-76.3453148318 pbc="T T T"
O   	    0.00000	    0.00000	    0.00000
H   	    0.95883	    0.00000	    0.00000
H   	   -0.59890	    0.74878	    0.00000
3
Lattice="15.0 0.0 0.0 0.0 15.0 0.0 0.0 0.0 15.0" Properties=species:S:1:pos:R:3 energy=-76.3394228103 pbc="T T T"
O   	    0.00000	    0.00000	    0.00000
H   	    0.95883	    0.00000	    0.00000
H   	   -0.67526	    0.68072	    0.00000
3
Lattice="15.0 0.0 0.0 0.0 15.0 0.0 0.0 0.0 15.0" Properties=species:S:1:pos:R:3 energy=-76.3330073928 pbc="T T T"
O   	    0.00000	    0.00000	    0.00000
H   	    0.95883	    0.00000	    0.00000
H   	   -0.74393	    0.60491	    0.00000
3
Lattice="15.0 0.0 0.0 0.0 15.0 0.0 0.0 0.0 15.0" Properties=species:S:1:pos:R:3 energy=-76.3264357576 pbc="T T T"
O   	    0.00000	    0.00000	    0.00000
H   	    0.95883	    0.00000	    0.00000
H   	   -0.80414	    0.52222	    0.00000
