3
Lattice="15.0 0.0 0.0 0.0 15.0 0.0 0.0 0.0 15.0" Properties=species:S:1:pos:R:3 energy=2.8747379478 pbc="T T T"
O        0.04971158       0.01743134       0.00000000
H        0.44985089      -0.27233556       0.00000000
H       -0.51750325       0.92463436       0.00000000
3
Lattice="15.0 0.0 0.0 0.0 15.0 0.0 0.0 0.0 15.0" Properties=species:S:1:pos:R:3 energy=0.6727800473 pbc="T T T"
O        0.04469518       0.02132564       0.00000000
H        0.51366343      -0.27233635       0.00000000
H       -0.50170202       0.86282993       0.00000000
3
Lattice="15.0 0.0 0.0 0.0 15.0 0.0 0.0 0.0 15.0" Properties=species:S:1:pos:R:3 energy=-0.1756911951 pbc="T T T"
O        0.03967879       0.02521994       0.00000000
H        0.57747597      -0.27233713       0.00000000
H       -0.48590079       0.80102550       0.00000000
3
Lattice="15.0 0.0 0.0 0.0 15.0 0.0 0.0 0.0 15.0" Properties=species:S:1:pos:R:3 energy=-0.4129494569 pbc="T T T"
O        0.03466239       0.02911424       0.00000000
H        0.64128851      -0.27233791       0.00000000
H       -0.47009956       0.73922107       0.00000000
3
Lattice="15.0 0.0 0.0 0.0 15.0 0.0 0.0 0.0 15.0" Properties=species:S:1:pos:R:3 energy=-0.4510517157 pbc="T T T"
O        0.02964600       0.03300855       0.00000000
H        0.70510105      -0.27233869       0.00000000
H       -0.45429834       0.67741664       0.00000000
3
Lattice="15.0 0.0 0.0 0.0 15.0 0.0 0.0 0.0 15.0" Properties=species:S:1:pos:R:3 energy=-0.4510405709 pbc="T T T"
O        0.02462960       0.03690285       0.00000000
H        0.76891359      -0.27233948       0.00000000
H       -0.43849711       0.61561221       0.00000000
3
Lattice="15.0 0.0 0.0 0.0 15.0 0.0 0.0 0.0 15.0" Properties=species:S:1:pos:R:3 energy=-0.4128637157 pbc="T T T"
O        0.01961321       0.04079715       0.00000000
H        0.83272612      -0.27234026       0.00000000
H       -0.42269588       0.55380778       0.00000000
3
Lattice="15.0 0.0 0.0 0.0 15.0 0.0 0.0 0.0 15.0" Properties=species:S:1:pos:R:3 energy=-0.1754462613 pbc="T T T"
O        0.01459681       0.04469145       0.00000000
H        0.89653866      -0.27234104       0.00000000
H       -0.40689465       0.49200335       0.00000000
3
Lattice="15.0 0.0 0.0 0.0 15.0 0.0 0.0 0.0 15.0" Properties=species:S:1:pos:R:3 energy=0.6721877438 pbc="T T T"
O        0.00958042       0.04858575       0.00000000
H        0.96035120      -0.27234182       0.00000000
H       -0.39109342       0.43019892       0.00000000
3
Lattice="15.0 0.0 0.0 0.0 15.0 0.0 0.0 0.0 15.0" Properties=species:S:1:pos:R:3 energy=2.8746164665 pbc="T T T"
O        0.00456402       0.05248005       0.00000000
H        1.02416374      -0.27234261       0.00000000
H       -0.37529219       0.36839449       0.00000000
3
Lattice="15.0 0.0 0.0 0.0 15.0 0.0 0.0 0.0 15.0" Properties=species:S:1:pos:R:3 energy=1.0179503366 pbc="T T T"
O        0.04700265       0.01394114       0.00000000
H        0.51237514      -0.27650478       0.00000000
H       -0.53703494       0.98419586       0.00000000
3
Lattice="15.0 0.0 0.0 0.0 15.0 0.0 0.0 0.0 15.0" Properties=species:S:1:pos:R:3 energy=0.0834724927 pbc="T T T"
O        0.04198626       0.01783544       0.00000000
H        0.57618768      -0.27650556       0.00000000
H       -0.52123371       0.92239143       0.00000000
3
Lattice="15.0 0.0 0.0 0.0 15.0 0.0 0.0 0.0 15.0" Properties=species:S:1:pos:R:3 energy=-0.1924870429 pbc="T T T"
O        0.03696986       0.02172975       0.00000000
H        0.64000022      -0.27650634       0.00000000
H       -0.50543248       0.86058700       0.00000000
3
Lattice="15.0 0.0 0.0 0.0 15.0 0.0 0.0 0.0 15.0" Properties=species:S:1:pos:R:3 energy=-0.2510371966 pbc="T T T"
O        0.03195347       0.02562405       0.00000000
H        0.70381276      -0.27650712       0.00000000
H       -0.48963126       0.79878257       0.00000000
3
Lattice="15.0 0.0 0.0 0.0 15.0 0.0 0.0 0.0 15.0" Properties=species:S:1:pos:R:3 energy=-0.2713879334 pbc="T T T"
O        0.02693707       0.02951835       0.00000000
H        0.76762530      -0.27650791       0.00000000
H       -0.47383003       0.73697814       0.00000000
3
Lattice="15.0 0.0 0.0 0.0 15.0 0.0 0.0 0.0 15.0" Properties=species:S:1:pos:R:3 energy=-0.2713615891 pbc="T T T"
O        0.02192068       0.03341265       0.00000000
H        0.83143783      -0.27650869       0.00000000
H       -0.45802880       0.67517371       0.00000000
3
Lattice="15.0 0.0 0.0 0.0 15.0 0.0 0.0 0.0 15.0" Properties=species:S:1:pos:R:3 energy=-0.2509582179 pbc="T T T"
O        0.01690428       0.03730695       0.00000000
H        0.89525037      -0.27650947       0.00000000
H       -0.44222757       0.61336928       0.00000000
3
Lattice="15.0 0.0 0.0 0.0 15.0 0.0 0.0 0.0 15.0" Properties=species:S:1:pos:R:3 energy=-0.1923254038 pbc="T T T"
O        0.01188789       0.04120125       0.00000000
H        0.95906291      -0.27651025       0.00000000
H       -0.42642634       0.55156485       0.00000000
3
Lattice="15.0 0.0 0.0 0.0 15.0 0.0 0.0 0.0 15.0" Properties=species:S:1:pos:R:3 energy=0.0836670752 pbc="T T T"
O        0.00687149       0.04509555       0.00000000
H        1.02287545      -0.27651104       0.00000000
H       -0.41062511       0.48976042       0.00000000
3
Lattice="15.0 0.0 0.0 0.0 15.0 0.0 0.0 0.0 15.0" Properties=species:S:1:pos:R:3 energy=1.0177980171 pbc="T T T"
O        0.00185510       0.04898986       0.00000000
H        1.08668799      -0.27651182       0.00000000
H       -0.39482388       0.42795599       0.00000000
3
Lattice="15.0 0.0 0.0 0.0 15.0 0.0 0.0 0.0 15.0" Properties=species:S:1:pos:R:3 energy=0.3194185988 pbc="T T T"
O        0.04429373       0.01045095       0.00000000
H        0.57489939      -0.28067399       0.00000000
H       -0.55656663       1.04375736       0.00000000
3
Lattice="15.0 0.0 0.0 0.0 15.0 0.0 0.0 0.0 15.0" Properties=species:S:1:pos:R:3 energy=0.0045216084 pbc="T T T"
O        0.03927733       0.01434525       0.00000000
H        0.63871193      -0.28067477       0.00000000
H       -0.54076541       0.98195293       0.00000000
3
Lattice="15.0 0.0 0.0 0.0 15.0 0.0 0.0 0.0 15.0" Properties=species:S:1:pos:R:3 energy=-0.0708274347 pbc="T T T"
O        0.03426094       0.01823955       0.00000000
H        0.70252447      -0.28067555       0.00000000
H       -0.52496418       0.92014850       0.00000000
3
Lattice="15.0 0.0 0.0 0.0 15.0 0.0 0.0 0.0 15.0" Properties=species:S:1:pos:R:3 energy=-0.1043867509 pbc="T T T"
O        0.02924454       0.02213385       0.00000000
H        0.76633701      -0.28067634       0.00000000
H       -0.50916295       0.85834407       0.00000000
3
Lattice="15.0 0.0 0.0 0.0 15.0 0.0 0.0 0.0 15.0" Properties=species:S:1:pos:R:3 energy=-0.1216335419 pbc="T T T"
O        0.02422815       0.02602815       0.00000000
H        0.83014954      -0.28067712       0.00000000
H       -0.49336172       0.79653964       0.00000000
3
Lattice="15.0 0.0 0.0 0.0 15.0 0.0 0.0 0.0 15.0" Properties=species:S:1:pos:R:3 energy=-0.1216104096 pbc="T T T"
O        0.01921175       0.02992245       0.00000000
H        0.89396208      -0.28067790       0.00000000
H       -0.47756049       0.73473521       0.00000000
3
Lattice="15.0 0.0 0.0 0.0 15.0 0.0 0.0 0.0 15.0" Properties=species:S:1:pos:R:3 energy=-0.1043139388 pbc="T T T"
O        0.01419536       0.03381676       0.00000000
H        0.95777462      -0.28067868       0.00000000
H       -0.46175926       0.67293078       0.00000000
3
Lattice="15.0 0.0 0.0 0.0 15.0 0.0 0.0 0.0 15.0" Properties=species:S:1:pos:R:3 energy=-0.0706872130 pbc="T T T"
O        0.00917896       0.03771106       0.00000000
H        1.02158716      -0.28067947       0.00000000
H       -0.44595803       0.61112635       0.00000000
3
Lattice="15.0 0.0 0.0 0.0 15.0 0.0 0.0 0.0 15.0" Properties=species:S:1:pos:R:3 energy=0.0047295682 pbc="T T T"
O        0.00416257       0.04160536       0.00000000
H        1.08539970      -0.28068025       0.00000000
H       -0.43015680       0.54932192       0.00000000
3
Lattice="15.0 0.0 0.0 0.0 15.0 0.0 0.0 0.0 15.0" Properties=species:S:1:pos:R:3 energy=0.3194852389 pbc="T T T"
O       -0.00085383       0.04549966       0.00000000
H        1.14921223      -0.28068103       0.00000000
H       -0.41435557       0.48751749       0.00000000
3
Lattice="15.0 0.0 0.0 0.0 15.0 0.0 0.0 0.0 15.0" Properties=species:S:1:pos:R:3 energy=0.1742024841 pbc="T T T"
O        0.04158480       0.00696075       0.00000000
H        0.63742364      -0.28484320       0.00000000
H       -0.57609833       1.10331886       0.00000000
3
Lattice="15.0 0.0 0.0 0.0 15.0 0.0 0.0 0.0 15.0" Properties=species:S:1:pos:R:3 energy=0.0847694009 pbc="T T T"
O        0.03656841       0.01085505       0.00000000
H        0.70123618      -0.28484398       0.00000000
H       -0.56029710       1.04151443       0.00000000
3
Lattice="15.0 0.0 0.0 0.0 15.0 0.0 0.0 0.0 15.0" Properties=species:S:1:pos:R:3 energy=0.0420088787 pbc="T T T"
O        0.03155201       0.01474935       0.00000000
H        0.76504872      -0.28484477       0.00000000
H       -0.54449587       0.97971000       0.00000000
3
Lattice="15.0 0.0 0.0 0.0 15.0 0.0 0.0 0.0 15.0" Properties=species:S:1:pos:R:3 energy=0.0129215451 pbc="T T T"
O        0.02653562       0.01864365       0.00000000
H        0.82886125      -0.28484555       0.00000000
H       -0.52869464       0.91790557       0.00000000
3
Lattice="15.0 0.0 0.0 0.0 15.0 0.0 0.0 0.0 15.0" Properties=species:S:1:pos:R:3 energy=-0.0014060405 pbc="T T T"
O        0.02151922       0.02253796       0.00000000
H        0.89267379      -0.28484633       0.00000000
H       -0.51289341       0.85610114       0.00000000
3
Lattice="15.0 0.0 0.0 0.0 15.0 0.0 0.0 0.0 15.0" Properties=species:S:1:pos:R:3 energy=-0.0013884180 pbc="T T T"
O        0.01650283       0.02643226       0.00000000
H        0.95648633      -0.28484712       0.00000000
H       -0.49709218       0.79429671       0.00000000
3
Lattice="15.0 0.0 0.0 0.0 15.0 0.0 0.0 0.0 15.0" Properties=species:S:1:pos:R:3 energy=0.0129762890 pbc="T T T"
O        0.01148643       0.03032656       0.00000000
H        1.02029887      -0.28484790       0.00000000
H       -0.48129095       0.73249228       0.00000000
3
Lattice="15.0 0.0 0.0 0.0 15.0 0.0 0.0 0.0 15.0" Properties=species:S:1:pos:R:3 energy=0.0421068631 pbc="T T T"
O        0.00647004       0.03422086       0.00000000
H        1.08411141      -0.28484868       0.00000000
H       -0.46548972       0.67068785       0.00000000
3
Lattice="15.0 0.0 0.0 0.0 15.0 0.0 0.0 0.0 15.0" Properties=species:S:1:pos:R:3 energy=0.0846505240 pbc="T T T"
O        0.00145364       0.03811516       0.00000000
H        1.14792394      -0.28484946       0.00000000
H       -0.44968849       0.60888342       0.00000000
3
Lattice="15.0 0.0 0.0 0.0 15.0 0.0 0.0 0.0 15.0" Properties=species:S:1:pos:R:3 energy=0.1739307684 pbc="T T T"
O       -0.00356275       0.04200946       0.00000000
H        1.21173648      -0.28485025       0.00000000
H       -0.43388727       0.54707899       0.00000000
3
Lattice="15.0 0.0 0.0 0.0 15.0 0.0 0.0 0.0 15.0" Properties=species:S:1:pos:R:3 energy=0.2086984435 pbc="T T T"
O        0.03887588       0.00347055       0.00000000
H        0.69994789      -0.28901241       0.00000000
H       -0.59563002       1.16288036       0.00000000
3
Lattice="15.0 0.0 0.0 0.0 15.0 0.0 0.0 0.0 15.0" Properties=species:S:1:pos:R:3 energy=0.1621615514 pbc="T T T"
O        0.03385948       0.00736485       0.00000000
H        0.76376043      -0.28901320       0.00000000
H       -0.57982879       1.10107593       0.00000000
3
Lattice="15.0 0.0 0.0 0.0 15.0 0.0 0.0 0.0 15.0" Properties=species:S:1:pos:R:3 energy=0.1257441101 pbc="T T T"
O        0.02884309       0.01125916       0.00000000
H        0.82757296      -0.28901398       0.00000000
H       -0.56402756       1.03927150       0.00000000
3
Lattice="15.0 0.0 0.0 0.0 15.0 0.0 0.0 0.0 15.0" Properties=species:S:1:pos:R:3 energy=0.1018778614 pbc="T T T"
O        0.02382669       0.01515346       0.00000000
H        0.89138550      -0.28901476       0.00000000
H       -0.54822633       0.97746707       0.00000000
3
Lattice="15.0 0.0 0.0 0.0 15.0 0.0 0.0 0.0 15.0" Properties=species:S:1:pos:R:3 energy=0.0900641733 pbc="T T T"
O        0.01881030       0.01904776       0.00000000
H        0.95519804      -0.28901555       0.00000000
H       -0.53242510       0.91566264       0.00000000
3
Lattice="15.0 0.0 0.0 0.0 15.0 0.0 0.0 0.0 15.0" Properties=species:S:1:pos:R:3 energy=0.0900757433 pbc="T T T"
O        0.01379390       0.02294206       0.00000000
H        1.01901058      -0.28901633       0.00000000
H       -0.51662387       0.85385821       0.00000000
3
Lattice="15.0 0.0 0.0 0.0 15.0 0.0 0.0 0.0 15.0" Properties=species:S:1:pos:R:3 energy=0.1019127753 pbc="T T T"
O        0.00877751       0.02683636       0.00000000
H        1.08282312      -0.28901711       0.00000000
H       -0.50082264       0.79205378       0.00000000
3
Lattice="15.0 0.0 0.0 0.0 15.0 0.0 0.0 0.0 15.0" Properties=species:S:1:pos:R:3 energy=0.1258043653 pbc="T T T"
O        0.00376111       0.03073066       0.00000000
H        1.14663565      -0.28901789       0.00000000
H       -0.48502142       0.73024935       0.00000000
3
Lattice="15.0 0.0 0.0 0.0 15.0 0.0 0.0 0.0 15.0" Properties=species:S:1:pos:R:3 energy=0.1622563539 pbc="T T T"
O       -0.00125528       0.03462496       0.00000000
H        1.21044819      -0.28901868       0.00000000
H       -0.46922019       0.66844492       0.00000000
3
Lattice="15.0 0.0 0.0 0.0 15.0 0.0 0.0 0.0 15.0" Properties=species:S:1:pos:R:3 energy=0.2088754406 pbc="T T T"
O       -0.00627168       0.03851927       0.00000000
H        1.27426073      -0.28901946       0.00000000
H       -0.45341896       0.60664049       0.00000000
3
Lattice="15.0 0.0 0.0 0.0 15.0 0.0 0.0 0.0 15.0" Properties=species:S:1:pos:R:3 energy=0.2478387963 pbc="T T T"
O        0.03616695      -0.00001964       0.00000000
H        0.76247214      -0.29318163       0.00000000
H       -0.61516171       1.22244186       0.00000000
3
Lattice="15.0 0.0 0.0 0.0 15.0 0.0 0.0 0.0 15.0" Properties=species:S:1:pos:R:3 energy=0.2098915120 pbc="T T T"
O        0.03115056       0.00387466       0.00000000
H        0.82628467      -0.29318241       0.00000000
H       -0.59936048       1.16063743       0.00000000
3
Lattice="15.0 0.0 0.0 0.0 15.0 0.0 0.0 0.0 15.0" Properties=species:S:1:pos:R:3 energy=0.1813568504 pbc="T T T"
O        0.02613416       0.00776896       0.00000000
H        0.89009721      -0.29318319       0.00000000
H       -0.58355925       1.09883300       0.00000000
3
Lattice="15.0 0.0 0.0 0.0 15.0 0.0 0.0 0.0 15.0" Properties=species:S:1:pos:R:3 energy=0.1622329602 pbc="T T T"
O        0.02111777       0.01166326       0.00000000
H        0.95390975      -0.29318398       0.00000000
H       -0.56775802       1.03702857       0.00000000
3
Lattice="15.0 0.0 0.0 0.0 15.0 0.0 0.0 0.0 15.0" Properties=species:S:1:pos:R:3 energy=0.1526015285 pbc="T T T"
O        0.01610137       0.01555756       0.00000000
H        1.01772229      -0.29318476       0.00000000
H       -0.55195679       0.97522414       0.00000000
3
Lattice="15.0 0.0 0.0 0.0 15.0 0.0 0.0 0.0 15.0" Properties=species:S:1:pos:R:3 energy=0.1526070072 pbc="T T T"
O        0.01108498       0.01945186       0.00000000
H        1.08153483      -0.29318554       0.00000000
H       -0.53615556       0.91341971       0.00000000
3
Lattice="15.0 0.0 0.0 0.0 15.0 0.0 0.0 0.0 15.0" Properties=species:S:1:pos:R:3 energy=0.1622494808 pbc="T T T"
O        0.00606858       0.02334617       0.00000000
H        1.14534737      -0.29318632       0.00000000
H       -0.52035434       0.85161527       0.00000000
3
Lattice="15.0 0.0 0.0 0.0 15.0 0.0 0.0 0.0 15.0" Properties=species:S:1:pos:R:3 energy=0.1813835538 pbc="T T T"
O        0.00105219       0.02724047       0.00000000
H        1.20915990      -0.29318711       0.00000000
H       -0.50455311       0.78981084       0.00000000
3
Lattice="15.0 0.0 0.0 0.0 15.0 0.0 0.0 0.0 15.0" Properties=species:S:1:pos:R:3 energy=0.2099305617 pbc="T T T"
O       -0.00396421       0.03113477       0.00000000
H        1.27297244      -0.29318789       0.00000000
H       -0.48875188       0.72800641       0.00000000
3
Lattice="15.0 0.0 0.0 0.0 15.0 0.0 0.0 0.0 15.0" Properties=species:S:1:pos:R:3 energy=0.2479028242 pbc="T T T"
O       -0.00898060       0.03502907       0.00000000
H        1.33678498      -0.29318867       0.00000000
H       -0.47295065       0.66620198       0.00000000
3
Lattice="15.0 0.0 0.0 0.0 15.0 0.0 0.0 0.0 15.0" Properties=species:S:1:pos:R:3 energy=0.2582677431 pbc="T T T"
O        0.03345803      -0.00350984       0.00000000
H        0.82499639      -0.29735084       0.00000000
H       -0.63469340       1.28200336       0.00000000
3
Lattice="15.0 0.0 0.0 0.0 15.0 0.0 0.0 0.0 15.0" Properties=species:S:1:pos:R:3 energy=0.2300895757 pbc="T T T"
O        0.02844163       0.00038446       0.00000000
H        0.88880892      -0.29735162       0.00000000
H       -0.61889217       1.22019893       0.00000000
3
Lattice="15.0 0.0 0.0 0.0 15.0 0.0 0.0 0.0 15.0" Properties=species:S:1:pos:R:3 energy=0.2086159618 pbc="T T T"
O        0.02342524       0.00427876       0.00000000
H        0.95262146      -0.29735241       0.00000000
H       -0.60309094       1.15839450       0.00000000
3
Lattice="15.0 0.0 0.0 0.0 15.0 0.0 0.0 0.0 15.0" Properties=species:S:1:pos:R:3 energy=0.1937727564 pbc="T T T"
O        0.01840884       0.00817306       0.00000000
H        1.01643400      -0.29735319       0.00000000
H       -0.58728971       1.09659006       0.00000000
3
Lattice="15.0 0.0 0.0 0.0 15.0 0.0 0.0 0.0 15.0" Properties=species:S:1:pos:R:3 energy=0.1862486470 pbc="T T T"
O        0.01339245       0.01206737       0.00000000
H        1.08024654      -0.29735397       0.00000000
H       -0.57148848       1.03478563       0.00000000
3
Lattice="15.0 0.0 0.0 0.0 15.0 0.0 0.0 0.0 15.0" Properties=species:S:1:pos:R:3 energy=0.1862494401 pbc="T T T"
O        0.00837605       0.01596167       0.00000000
H        1.14405908      -0.29735475       0.00000000
H       -0.55568726       0.97298120       0.00000000
3
Lattice="15.0 0.0 0.0 0.0 15.0 0.0 0.0 0.0 15.0" Properties=species:S:1:pos:R:3 energy=0.1937737832 pbc="T T T"
O        0.00335966       0.01985597       0.00000000
H        1.20787161      -0.29735554       0.00000000
H       -0.53988603       0.91117677       0.00000000
3
Lattice="15.0 0.0 0.0 0.0 15.0 0.0 0.0 0.0 15.0" Properties=species:S:1:pos:R:3 energy=0.2086150873 pbc="T T T"
O       -0.00165674       0.02375027       0.00000000
H        1.27168415      -0.29735632       0.00000000
H       -0.52408480       0.84937234       0.00000000
3
Lattice="15.0 0.0 0.0 0.0 15.0 0.0 0.0 0.0 15.0" Properties=species:S:1:pos:R:3 energy=0.2300848146 pbc="T T T"
O       -0.00667313       0.02764457       0.00000000
H        1.33549669      -0.29735710       0.00000000
H       -0.50828357       0.78756791       0.00000000
3
Lattice="15.0 0.0 0.0 0.0 15.0 0.0 0.0 0.0 15.0" Properties=species:S:1:pos:R:3 energy=0.2582638676 pbc="T T T"
O       -0.01168953       0.03153887       0.00000000
H        1.39930923      -0.29735789       0.00000000
H       -0.49248234       0.72576348       0.00000000
3
Lattice="15.0 0.0 0.0 0.0 15.0 0.0 0.0 0.0 15.0" Properties=species:S:1:pos:R:3 energy=0.2484568106 pbc="T T T"
O        0.03074910      -0.00700004       0.00000000
H        0.88752063      -0.30152005       0.00000000
H       -0.65422509       1.34156485       0.00000000
3
Lattice="15.0 0.0 0.0 0.0 15.0 0.0 0.0 0.0 15.0" Properties=species:S:1:pos:R:3 energy=0.2245676064 pbc="T T T"
O        0.02573271      -0.00310574       0.00000000
H        0.95133317      -0.30152084       0.00000000
H       -0.63842386       1.27976042       0.00000000
3
Lattice="15.0 0.0 0.0 0.0 15.0 0.0 0.0 0.0 15.0" Properties=species:S:1:pos:R:3 energy=0.2086473888 pbc="T T T"
O        0.02071631       0.00078857       0.00000000
H        1.01514571      -0.30152162       0.00000000
H       -0.62262263       1.21795599       0.00000000
3
Lattice="15.0 0.0 0.0 0.0 15.0 0.0 0.0 0.0 15.0" Properties=species:S:1:pos:R:3 energy=0.1980004644 pbc="T T T"
O        0.01569992       0.00468287       0.00000000
H        1.07895825      -0.30152240       0.00000000
H       -0.60682141       1.15615156       0.00000000
3
Lattice="15.0 0.0 0.0 0.0 15.0 0.0 0.0 0.0 15.0" Properties=species:S:1:pos:R:3 energy=0.1924031235 pbc="T T T"
O        0.01068352       0.00857717       0.00000000
H        1.14277079      -0.30152318       0.00000000
H       -0.59102018       1.09434713       0.00000000
3
Lattice="15.0 0.0 0.0 0.0 15.0 0.0 0.0 0.0 15.0" Properties=species:S:1:pos:R:3 energy=0.1924001170 pbc="T T T"
O        0.00566713       0.01247147       0.00000000
H        1.20658332      -0.30152397       0.00000000
H       -0.57521895       1.03254270       0.00000000
3
Lattice="15.0 0.0 0.0 0.0 15.0 0.0 0.0 0.0 15.0" Properties=species:S:1:pos:R:3 energy=0.1979899147 pbc="T T T"
O        0.00065073       0.01636577       0.00000000
H        1.27039586      -0.30152475       0.00000000
H       -0.55941772       0.97073827       0.00000000
3
Lattice="15.0 0.0 0.0 0.0 15.0 0.0 0.0 0.0 15.0" Properties=species:S:1:pos:R:3 energy=0.2086261357 pbc="T T T"
O       -0.00436566       0.02026007       0.00000000
H        1.33420840      -0.30152553       0.00000000
H       -0.54361649       0.90893384       0.00000000
3
Lattice="15.0 0.0 0.0 0.0 15.0 0.0 0.0 0.0 15.0" Properties=species:S:1:pos:R:3 energy=0.2245324032 pbc="T T T"
O       -0.00938206       0.02415437       0.00000000
H        1.39802094      -0.30152632       0.00000000
H       -0.52781526       0.84712941       0.00000000
3
Lattice="15.0 0.0 0.0 0.0 15.0 0.0 0.0 0.0 15.0" Properties=species:S:1:pos:R:3 energy=0.2484086048 pbc="T T T"
O       -0.01439845       0.02804868       0.00000000
H        1.46183348      -0.30152710       0.00000000
H       -0.51201403       0.78532498       0.00000000
3
Lattice="15.0 0.0 0.0 0.0 15.0 0.0 0.0 0.0 15.0" Properties=species:S:1:pos:R:3 energy=5.1179627056 pbc="T T T"
O        0.04578790       0.01237800       0.00000000
H        0.45051522      -0.20857304       0.00000000
H       -0.45589421       0.94107164       0.00000000
3
Lattice="15.0 0.0 0.0 0.0 15.0 0.0 0.0 0.0 15.0" Properties=species:S:1:pos:R:3 energy=1.4829130289 pbc="T T T"
O        0.04077150       0.01627231       0.00000000
H        0.51432775      -0.20857383       0.00000000
H       -0.44009298       0.87926721       0.00000000
3
Lattice="15.0 0.0 0.0 0.0 15.0 0.0 0.0 0.0 15.0" Properties=species:S:1:pos:R:3 energy=0.0628073699 pbc="T T T"
O        0.03575511       0.02016661       0.00000000
H        0.57814029      -0.20857461       0.00000000
H       -0.42429175       0.81746278       0.00000000
3
Lattice="15.0 0.0 0.0 0.0 15.0 0.0 0.0 0.0 15.0" Properties=species:S:1:pos:R:3 energy=-0.3580794903 pbc="T T T"
O        0.03073871       0.02406091       0.00000000
H        0.64195283      -0.20857539       0.00000000
H       -0.40849053       0.75565835       0.00000000
3
Lattice="15.0 0.0 0.0 0.0 15.0 0.0 0.0 0.0 15.0" Properties=species:S:1:pos:R:3 energy=-0.4278672717 pbc="T T T"
O        0.02572232       0.02795521       0.00000000
H        0.70576537      -0.20857618       0.00000000
H       -0.39268930       0.69385392       0.00000000
3
Lattice="15.0 0.0 0.0 0.0 15.0 0.0 0.0 0.0 15.0" Properties=species:S:1:pos:R:3 energy=-0.4275427213 pbc="T T T"
O        0.02070592       0.03184951       0.00000000
H        0.76957791      -0.20857696       0.00000000
H       -0.37688807       0.63204949       0.00000000
3
Lattice="15.0 0.0 0.0 0.0 15.0 0.0 0.0 0.0 15.0" Properties=species:S:1:pos:R:3 energy=-0.3579542169 pbc="T T T"
O        0.01568953       0.03574381       0.00000000
H        0.83339044      -0.20857774       0.00000000
H       -0.36108684       0.57024506       0.00000000
3
Lattice="15.0 0.0 0.0 0.0 15.0 0.0 0.0 0.0 15.0" Properties=species:S:1:pos:R:3 energy=0.0630930740 pbc="T T T"
O        0.01067313       0.03963811       0.00000000
H        0.89720298      -0.20857852       0.00000000
H       -0.34528561       0.50844063       0.00000000
3
Lattice="15.0 0.0 0.0 0.0 15.0 0.0 0.0 0.0 15.0" Properties=species:S:1:pos:R:3 energy=1.4841132251 pbc="T T T"
O        0.00565674       0.04353242       0.00000000
H        0.96101552      -0.20857931       0.00000000
H       -0.32948438       0.44663620       0.00000000
3
Lattice="15.0 0.0 0.0 0.0 15.0 0.0 0.0 0.0 15.0" Properties=species:S:1:pos:R:3 energy=5.1167526123 pbc="T T T"
O        0.00064034       0.04742672       0.00000000
H        1.02482806      -0.20858009       0.00000000
H       -0.31368315       0.38483177       0.00000000
3
Lattice="15.0 0.0 0.0 0.0 15.0 0.0 0.0 0.0 15.0" Properties=species:S:1:pos:R:3 energy=1.8685133128 pbc="T T T"
O        0.04307897       0.00888781       0.00000000
H        0.51303946      -0.21274226       0.00000000
H       -0.47542590       1.00063314       0.00000000
3
Lattice="15.0 0.0 0.0 0.0 15.0 0.0 0.0 0.0 15.0" Properties=species:S:1:pos:R:3 energy=0.3266685996 pbc="T T T"
O        0.03806258       0.01278211       0.00000000
H        0.57685200      -0.21274304       0.00000000
H       -0.45962468       0.93882871       0.00000000
3
Lattice="15.0 0.0 0.0 0.0 15.0 0.0 0.0 0.0 15.0" Properties=species:S:1:pos:R:3 energy=-0.1484820373 pbc="T T T"
O        0.03304618       0.01667641       0.00000000
H        0.64066454      -0.21274382       0.00000000
H       -0.44382345       0.87702428       0.00000000
3
Lattice="15.0 0.0 0.0 0.0 15.0 0.0 0.0 0.0 15.0" Properties=species:S:1:pos:R:3 energy=-0.2446552741 pbc="T T T"
O        0.02802979       0.02057071       0.00000000
H        0.70447708      -0.21274461       0.00000000
H       -0.42802222       0.81521985       0.00000000
3
Lattice="15.0 0.0 0.0 0.0 15.0 0.0 0.0 0.0 15.0" Properties=species:S:1:pos:R:3 energy=-0.2622890966 pbc="T T T"
O        0.02301339       0.02446501       0.00000000
H        0.76828962      -0.21274539       0.00000000
H       -0.41222099       0.75341542       0.00000000
3
Lattice="15.0 0.0 0.0 0.0 15.0 0.0 0.0 0.0 15.0" Properties=species:S:1:pos:R:3 energy=-0.2622673443 pbc="T T T"
O        0.01799700       0.02835932       0.00000000
H        0.83210215      -0.21274617       0.00000000
H       -0.39641976       0.69161099       0.00000000
3
Lattice="15.0 0.0 0.0 0.0 15.0 0.0 0.0 0.0 15.0" Properties=species:S:1:pos:R:3 energy=-0.2445961847 pbc="T T T"
O        0.01298060       0.03225362       0.00000000
H        0.89591469      -0.21274695       0.00000000
H       -0.38061853       0.62980656       0.00000000
3
Lattice="15.0 0.0 0.0 0.0 15.0 0.0 0.0 0.0 15.0" Properties=species:S:1:pos:R:3 energy=-0.1483864988 pbc="T T T"
O        0.00796421       0.03614792       0.00000000
H        0.95972723      -0.21274774       0.00000000
H       -0.36481730       0.56800213       0.00000000
3
Lattice="15.0 0.0 0.0 0.0 15.0 0.0 0.0 0.0 15.0" Properties=species:S:1:pos:R:3 energy=0.3265890420 pbc="T T T"
O        0.00294781       0.04004222       0.00000000
H        1.02353977      -0.21274852       0.00000000
H       -0.34901607       0.50619770       0.00000000
3
Lattice="15.0 0.0 0.0 0.0 15.0 0.0 0.0 0.0 15.0" Properties=species:S:1:pos:R:3 energy=1.8674086137 pbc="T T T"
O       -0.00206858       0.04393652       0.00000000
H        1.08735231      -0.21274930       0.00000000
H       -0.33321484       0.44439327       0.00000000
3
Lattice="15.0 0.0 0.0 0.0 15.0 0.0 0.0 0.0 15.0" Properties=species:S:1:pos:R:3 energy=0.5642811384 pbc="T T T"
O        0.04037005       0.00539761       0.00000000
H        0.57556371      -0.21691147       0.00000000
H       -0.49495760       1.06019464       0.00000000
3
Lattice="15.0 0.0 0.0 0.0 15.0 0.0 0.0 0.0 15.0" Properties=species:S:1:pos:R:3 energy=0.0358632635 pbc="T T T"
O        0.03535365       0.00929191       0.00000000
H        0.63937625      -0.21691225       0.00000000
H       -0.47915637       0.99839021       0.00000000
3
Lattice="15.0 0.0 0.0 0.0 15.0 0.0 0.0 0.0 15.0" Properties=species:S:1:pos:R:3 energy=-0.0812658215 pbc="T T T"
O        0.03033726       0.01318621       0.00000000
H        0.70318879      -0.21691304       0.00000000
H       -0.46335514       0.93658578       0.00000000
3
Lattice="15.0 0.0 0.0 0.0 15.0 0.0 0.0 0.0 15.0" Properties=species:S:1:pos:R:3 energy=-0.1118031755 pbc="T T T"
O        0.02532086       0.01708052       0.00000000
H        0.76700133      -0.21691382       0.00000000
H       -0.44755391       0.87478135       0.00000000
3
Lattice="15.0 0.0 0.0 0.0 15.0 0.0 0.0 0.0 15.0" Properties=species:S:1:pos:R:3 energy=-0.1287122942 pbc="T T T"
O        0.02030447       0.02097482       0.00000000
H        0.83081387      -0.21691460       0.00000000
H       -0.43175268       0.81297692       0.00000000
3
Lattice="15.0 0.0 0.0 0.0 15.0 0.0 0.0 0.0 15.0" Properties=species:S:1:pos:R:3 energy=-0.1286942207 pbc="T T T"
O        0.01528807       0.02486912       0.00000000
H        0.89462640      -0.21691538       0.00000000
H       -0.41595145       0.75117249       0.00000000
3
Lattice="15.0 0.0 0.0 0.0 15.0 0.0 0.0 0.0 15.0" Properties=species:S:1:pos:R:3 energy=-0.1117520415 pbc="T T T"
O        0.01027168       0.02876342       0.00000000
H        0.95843894      -0.21691617       0.00000000
H       -0.40015022       0.68936806       0.00000000
3
Lattice="15.0 0.0 0.0 0.0 15.0 0.0 0.0 0.0 15.0" Properties=species:S:1:pos:R:3 energy=-0.0811861209 pbc="T T T"
O        0.00525528       0.03265772       0.00000000
H        1.02225148      -0.21691695       0.00000000
H       -0.38434899       0.62756363       0.00000000
3
Lattice="15.0 0.0 0.0 0.0 15.0 0.0 0.0 0.0 15.0" Properties=species:S:1:pos:R:3 energy=0.0358737905 pbc="T T T"