3
Lattice="15.0 0.0 0.0 0.0 15.0 0.0 0.0 0.0 15.0" Properties=species:S:1:pos:R:3:MACE_forces:R:3 energy=5.651228331 MACE_energy=4.367942654217629 pbc="T T T"
O        0.00000000       0.00000000       0.00000000     -16.47358300     -27.23607934      -0.00000000
H        0.95883000       0.00000000       0.00000000      -1.72487145       2.46314946      -0.00000000
H        0.35000000       0.60622000       0.00000000      18.19845445      24.77292988      -0.00000000
3
Lattice="15.0 0.0 0.0 0.0 15.0 0.0 0.0 0.0 15.0" Properties=species:S:1:pos:R:3:MACE_forces:R:3 energy=4.420011636 MACE_energy=3.396203310028089 pbc="T T T"
O        0.00000000       0.00000000       0.00000000     -12.31767548     -20.55227183      -0.00000000
H        0.95883000       0.00000000       0.00000000      -1.66350029       2.28620771      -0.00000000
H        0.36842000       0.63812000       0.00000000      13.98117577      18.26606412      -0.00000000
3
Lattice="15.0 0.0 0.0 0.0 15.0 0.0 0.0 0.0 15.0" Properties=species:S:1:pos:R:3:MACE_forces:R:3 energy=3.5001357201 MACE_energy=2.6616895432276437 pbc="T T T"
O        0.00000000       0.00000000       0.00000000      -9.32444482     -15.70896326      -0.00000000
H        0.95883000       0.00000000       0.00000000      -1.57568077       2.14436582      -0.00000000
H        0.38684000       0.67003000       0.00000000      10.90012559      13.56459744      -0.00000000
3
Lattice="15.0 0.0 0.0 0.0 15.0 0.0 0.0 0.0 15.0" Properties=species:S:1:pos:R:3:MACE_forces:R:3 energy=2.8236985533 MACE_energy=2.123828414879776 pbc="T T T"
O        0.00000000       0.00000000       0.00000000      -6.58809914     -11.22532225      -0.00000000
H        0.95883000       0.00000000       0.00000000      -1.38041315       1.88621138      -0.00000000
H        0.40527000       0.70194000       0.00000000       7.96851229       9.33911087      -0.00000000
3
Lattice="15.0 0.0 0.0 0.0 15.0 0.0 0.0 0.0 15.0" Properties=species:S:1:pos:R:3:MACE_forces:R:3 energy=2.3379690818 MACE_energy=1.762628366670261 pbc="T T T"
O        0.00000000       0.00000000       0.00000000      -4.21113716      -7.29878545      -0.00000000
H        0.95883000       0.00000000       0.00000000      -1.05124277       1.43760975      -0.00000000
H        0.42369000       0.73384000       0.00000000       5.26237993       5.86117570      -0.00000000
3
Lattice="15.0 0.0 0.0 0.0 15.0 0.0 0.0 0.0 15.0" Properties=species:S:1:pos:R:3:MACE_forces:R:3 energy=2.0014067167 MACE_energy=1.5427112067428452 pbc="T T T"
O        0.00000000       0.00000000       0.00000000      -2.33595172      -4.18491563      -0.00000000
H        0.95883000       0.00000000       0.00000000      -0.62519465       0.80760331      -0.00000000
H        0.44211000       0.76575000       0.00000000       2.96114637       3.37731231      -0.00000000
3
Lattice="15.0 0.0 0.0 0.0 15.0 0.0 0.0 0.0 15.0" Properties=species:S:1:pos:R:3:MACE_forces:R:3 energy=1.7820266887 MACE_energy=1.4266250689073396 pbc="T T T"
O        0.00000000       0.00000000       0.00000000      -0.90083003      -1.78531207      -0.00000000
H        0.95883000       0.00000000       0.00000000      -0.16728498       0.05978761      -0.00000000
H        0.46053000       0.79765000       0.00000000       1.06811501       1.72552446      -0.00000000
3
Lattice="15.0 0.0 0.0 0.0 15.0 0.0 0.0 0.0 15.0" Properties=species:S:1:pos:R:3:MACE_forces:R:3 energy=1.6543956337 MACE_energy=1.3852432175129692 pbc="T T T"
O        0.00000000       0.00000000       0.00000000       0.20955333       0.09309181      -0.00000000
H        0.95883000       0.00000000       0.00000000       0.26056899      -0.71978067      -0.00000000
H        0.47895000       0.82956000       0.00000000      -0.47012232       0.62668886      -0.00000000
3
Lattice="15.0 0.0 0.0 0.0 15.0 0.0 0.0 0.0 15.0" Properties=species:S:1:pos:R:3:MACE_forces:R:3 energy=1.5987082207 MACE_energy=1.3983658175374707 pbc="T T T"
O        0.00000000       0.00000000       0.00000000       1.07029688       1.57556630      -0.00000000
H        0.95883000       0.00000000       0.00000000       0.61282148      -1.44393137      -0.00000000
H        0.49737000       0.86147000       0.00000000      -1.68311837      -0.13163492      -0.00000000
3
Lattice="15.0 0.0 0.0 0.0 15.0 0.0 0.0 0.0 15.0" Properties=species:S:1:pos:R:3:MACE_forces:R:3 energy=1.5992507369 MACE_energy=1.4514859535439975 pbc="T T T"
O        0.00000000       0.00000000       0.00000000       1.71856317       2.72162238      -0.00000000
H        0.95883000       0.00000000       0.00000000       0.86668590      -2.04450695      -0.00000000
H        0.51579000       0.89337000       0.00000000      -2.58524907      -0.67711543      -0.00000000
3
Lattice="15.0 0.0 0.0 0.0 15.0 0.0 0.0 0.0 15.0" Properties=species:S:1:pos:R:3:MACE_forces:R:3 energy=1.6434886708 MACE_energy=1.5336545083345032 pbc="T T T"
O        0.00000000       0.00000000       0.00000000       2.18167723       3.57349753      -0.00000000
H        0.95883000       0.00000000       0.00000000       1.02145725      -2.48409907      -0.00000000
H        0.53421000       0.92528000       0.00000000      -3.20313447      -1.08939846      -0.00000000
3
Lattice="15.0 0.0 0.0 0.0 15.0 0.0 0.0 0.0 15.0" Properties=species:S:1:pos:R:3:MACE_forces:R:3 energy=1.721479333 MACE_energy=1.6367870633855865 pbc="T T T"
O        0.00000000       0.00000000       0.00000000       2.49381937       4.18528336      -0.00000000
H        0.95883000       0.00000000       0.00000000       1.09228438      -2.75636052      -0.00000000
H        0.55263000       0.95718000       0.00000000      -3.58610375      -1.42892284      -0.00000000
3
Lattice="15.0 0.0 0.0 0.0 15.0 0.0 0.0 0.0 15.0" Properties=species:S:1:pos:R:3:MACE_forces:R:3 energy=1.8252868549 MACE_energy=1.7556659547479905 pbc="T T T"
O        0.00000000       0.00000000       0.00000000       2.69551792       4.62225152      -0.00000000
H        0.95883000       0.00000000       0.00000000       1.10310022      -2.88219885      -0.00000000
H        0.57106000       0.98910000       0.00000000      -3.79861814      -1.74005267      -0.00000000
3
Lattice="15.0 0.0 0.0 0.0 15.0 0.0 0.0 0.0 15.0" Properties=species:S:1:pos:R:3:MACE_forces:R:3 energy=1.9483668191 MACE_energy=1.8869770762228224 pbc="T T T"
O        0.00000000       0.00000000       0.00000000       2.81867191       4.93444132      -0.00000000
H        0.95883000       0.00000000       0.00000000       1.07859794      -2.89795057      -0.00000000
H        0.58948000       1.02100000       0.00000000      -3.89726985      -2.03649076      -0.00000000
3
Lattice="15.0 0.0 0.0 0.0 15.0 0.0 0.0 0.0 15.0" Properties=species:S:1:pos:R:3:MACE_forces:R:3 energy=2.0856034797 MACE_energy=2.0282524375111834 pbc="T T T"
O        0.00000000       0.00000000       0.00000000       2.87386003       5.13495234      -0.00000000
H        0.95883000       0.00000000       0.00000000       1.03879642      -2.84426403      -0.00000000
H        0.60790000       1.05291000       0.00000000      -3.91265645      -2.29068831      -0.00000000
3
Lattice="15.0 0.0 0.0 0.0 15.0 0.0 0.0 0.0 15.0" Properties=species:S:1:pos:R:3:MACE_forces:R:3 energy=2.2327654471 MACE_energy=2.175626769831344 pbc="T T T"
O        0.00000000       0.00000000       0.00000000       2.84644754       5.19292483      -0.00000000
H        0.95883000       0.00000000       0.00000000       0.99648455      -2.75606294      -0.00000000
H        0.62632000       1.08481000       0.00000000      -3.84293210      -2.43686189      -0.00000000
3
Lattice="15.0 0.0 0.0 0.0 15.0 0.0 0.0 0.0 15.0" Properties=species:S:1:pos:R:3:MACE_forces:R:3 energy=2.3864678834 MACE_energy=2.3225864225090227 pbc="T T T"
O        0.00000000       0.00000000       0.00000000       2.70528095       5.04943838      -0.00000000
H        0.95883000       0.00000000       0.00000000       0.95748913      -2.65744553      -0.00000000
H        0.64474000       1.11671000       0.00000000      -3.66277007      -2.39199285      -0.00000000
3
Lattice="15.0 0.0 0.0 0.0 15.0 0.0 0.0 0.0 15.0" Properties=species:S:1:pos:R:3:MACE_forces:R:3 energy=2.5440058216 MACE_energy=2.459499792654688 pbc="T T T"
O        0.00000000       0.00000000       0.00000000       2.41685957       4.64233833      -0.00000000
H        0.95883000       0.00000000       0.00000000       0.92260958      -2.56096786      -0.00000000
H        0.66316000       1.14863000       0.00000000      -3.33946916      -2.08137047      -0.00000000
3
Lattice="15.0 0.0 0.0 0.0 15.0 0.0 0.0 0.0 15.0" Properties=species:S:1:pos:R:3:MACE_forces:R:3 energy=2.703039499 MACE_energy=2.574099160066089 pbc="T T T"
O        0.00000000       0.00000000       0.00000000       1.95913687       3.92992796      -0.00000000
H        0.95883000       0.00000000       0.00000000       0.88993560      -2.47017216      -0.00000000
H        0.68158000       1.18053000       0.00000000      -2.84907247      -1.45975580      -0.00000000
3
Lattice="15.0 0.0 0.0 0.0 15.0 0.0 0.0 0.0 15.0" Properties=species:S:1:pos:R:3:MACE_forces:R:3 energy=2.8618318685 MACE_energy=2.6531564751058383 pbc="T T T"
O        0.00000000       0.00000000       0.00000000       1.32905525       2.90471159      -0.00000000
H        0.95883000       0.00000000       0.00000000       0.85661980      -2.38265170      -0.00000000
H        0.70000000       1.21244000       0.00000000      -2.18567505      -0.52205990      -0.00000000
3
Lattice="15.0 0.0 0.0 0.0 15.0 0.0 0.0 0.0 15.0" Properties=species:S:1:pos:R:3:MACE_forces:R:3 energy=5.3429546479 MACE_energy=4.466594768215247 pbc="T T T"
O        0.00000000       0.00000000       0.00000000     -14.36966041     -28.15386132      -0.00000000
H        0.95883000       0.00000000       0.00000000      -1.14265257       1.19680996      -0.00000000
H        0.31667000       0.62428000       0.00000000      15.51231298      26.95705137      -0.00000000
3
Lattice="15.0 0.0 0.0 0.0 15.0 0.0 0.0 0.0 15.0" Properties=species:S:1:pos:R:3:MACE_forces:R:3 energy=4.1168979038 MACE_energy=3.478407143693412 pbc="T T T"
O        0.00000000       0.00000000       0.00000000     -10.54351670     -21.03481575      -0.00000000
H        0.95883000       0.00000000       0.00000000      -0.85945951       0.77010812      -0.00000000
H        0.33333000       0.65713000       0.00000000      11.40297621      20.26470763      -0.00000000
3
Lattice="15.0 0.0 0.0 0.0 15.0 0.0 0.0 0.0 15.0" Properties=species:S:1:pos:R:3:MACE_forces:R:3 energy=3.2033952102 MACE_energy=2.727179713160322 pbc="T T T"
O        0.00000000       0.00000000       0.00000000      -7.81367216     -15.92907670      -0.00000000
H        0.95883000       0.00000000       0.00000000      -0.54519642       0.31594844      -0.00000000
H        0.35000000       0.68999000       0.00000000       8.35886858      15.61312826      -0.00000000
3
Lattice="15.0 0.0 0.0 0.0 15.0 0.0 0.0 0.0 15.0" Properties=species:S:1:pos:R:3:MACE_forces:R:3 energy=2.5345215161 MACE_energy=2.1674063049600085 pbc="T T T"
O        0.00000000       0.00000000       0.00000000      -5.36412507     -11.28337328      -0.00000000
H        0.95883000       0.00000000       0.00000000      -0.18454517      -0.21348655      -0.00000000
H        0.36667000       0.72285000       0.00000000       5.54867024      11.49685983      -0.00000000
3
Lattice="15.0 0.0 0.0 0.0 15.0 0.0 0.0 0.0 15.0" Properties=species:S:1:pos:R:3:MACE_forces:R:3 energy=2.0571959656 MACE_energy=1.7773328594236049 pbc="T T T"
O        0.00000000       0.00000000       0.00000000      -3.26223009      -7.24864086      -0.00000000
H        0.95883000       0.00000000       0.00000000       0.20334161      -0.81144898      -0.00000000
H        0.38333000       0.75571000       0.00000000       3.05888848       8.06008984      -0.00000000
3
Lattice="15.0 0.0 0.0 0.0 15.0 0.0 0.0 0.0 15.0" Properties=species:S:1:pos:R:3:MACE_forces:R:3 energy=1.7301106568 MACE_energy=1.5234967632378655 pbc="T T T"
O        0.00000000       0.00000000       0.00000000      -1.61854097      -4.05834116      -0.00000000
H        0.95883000       0.00000000       0.00000000       0.57440868      -1.43151854      -0.00000000
H        0.40000000       0.78856000       0.00000000       1.04413229       5.48985970      -0.00000000
3
Lattice="15.0 0.0 0.0 0.0 15.0 0.0 0.0 0.0 15.0" Properties=species:S:1:pos:R:3:MACE_forces:R:3 energy=1.5206705671 MACE_energy=1.371714677915444 pbc="T T T"
O        0.00000000       0.00000000       0.00000000      -0.36645349      -1.59558285      -0.00000000
H        0.95883000       0.00000000       0.00000000       0.88604565      -2.01349213      -0.00000000
H        0.41667000       0.82142000       0.00000000      -0.51959215       3.60907497      -0.00000000
3
Lattice="15.0 0.0 0.0 0.0 15.0 0.0 0.0 0.0 15.0" Properties=species:S:1:pos:R:3:MACE_forces:R:3 energy=1.4035441195 MACE_energy=1.2968430105545874 pbc="T T T"
O        0.00000000       0.00000000       0.00000000       0.59865054       0.33712301      -0.00000000
H        0.95883000       0.00000000       0.00000000       1.11077214      -2.50090009      -0.00000000
H        0.43333000       0.85427000       0.00000000      -1.70942268       2.16377708      -0.00000000
3
Lattice="15.0 0.0 0.0 0.0 15.0 0.0 0.0 0.0 15.0" Properties=species:S:1:pos:R:3:MACE_forces:R:3 energy=1.3586171144 MACE_energy=1.281840855715275 pbc="T T T"
O        0.00000000       0.00000000       0.00000000       1.34433730       1.86684945      -0.00000000
H        0.95883000       0.00000000       0.00000000       1.24172072      -2.85770767      -0.00000000
H        0.45000000       0.88713000       0.00000000      -2.58605802       0.99085822      -0.00000000
3
Lattice="15.0 0.0 0.0 0.0 15.0 0.0 0.0 0.0 15.0" Properties=species:S:1:pos:R:3:MACE_forces:R:3 energy=1.3700327316 MACE_energy=1.3141896611359634 pbc="T T T"
O        0.00000000       0.00000000       0.00000000       1.90167518       3.04955964      -0.00000000
H        0.95883000       0.00000000       0.00000000       1.28951204      -3.07363933      -0.00000000
H        0.46667000       0.91999000       0.00000000      -3.19118722       0.02407969      -0.00000000
3
Lattice="15.0 0.0 0.0 0.0 15.0 0.0 0.0 0.0 15.0" Properties=species:S:1:pos:R:3:MACE_forces:R:3 energy=1.4251129661 MACE_energy=1.3833705006296482 pbc="T T T"
O        0.00000000       0.00000000       0.00000000       2.29288586       3.92458763      -0.00000000
H        0.95883000       0.00000000       0.00000000       1.27582983      -3.16202758      -0.00000000
H        0.48333000       0.95284000       0.00000000      -3.56871569      -0.76256005      -0.00000000
3
Lattice="15.0 0.0 0.0 0.0 15.0 0.0 0.0 0.0 15.0" Properties=species:S:1:pos:R:3:MACE_forces:R:3 energy=1.5138445692 MACE_energy=1.480609338189781 pbc="T T T"
O        0.00000000       0.00000000       0.00000000       2.54799460       4.54751635      -0.00000000
H        0.95883000       0.00000000       0.00000000       1.22570921      -3.15145407      -0.00000000
H        0.50000000       0.98570000       0.00000000      -3.77370381      -1.39606228      -0.00000000
3
Lattice="15.0 0.0 0.0 0.0 15.0 0.0 0.0 0.0 15.0" Properties=species:S:1:pos:R:3:MACE_forces:R:3 energy=1.628110409 MACE_energy=1.5989878807822895 pbc="T T T"
O        0.00000000       0.00000000       0.00000000       2.70251123       4.98501956      -0.00000000
H        0.95883000       0.00000000       0.00000000       1.16125079      -3.07550069      -0.00000000
H        0.51667000       1.01856000       0.00000000      -3.86376202      -1.90951887      -0.00000000
3
Lattice="15.0 0.0 0.0 0.0 15.0 0.0 0.0 0.0 15.0" Properties=species:S:1:pos:R:3:MACE_forces:R:3 energy=1.7613650969 MACE_energy=1.733441025605557 pbc="T T T"
O        0.00000000       0.00000000       0.00000000       2.78511666       5.28999112      -0.00000000
H        0.95883000       0.00000000       0.00000000       1.09778308      -2.96415388      -0.00000000
H        0.53333000       1.05142000       0.00000000      -3.88289974      -2.32583724      -0.00000000
3
Lattice="15.0 0.0 0.0 0.0 15.0 0.0 0.0 0.0 15.0" Properties=species:S:1:pos:R:3:MACE_forces:R:3 energy=1.9084251549 MACE_energy=1.8798047889715686 pbc="T T T"
O        0.00000000       0.00000000       0.00000000       2.80521348       5.47615736      -0.00000000
H        0.95883000       0.00000000       0.00000000       1.04301565      -2.83891313      -0.00000000
H        0.55000000       1.08427000       0.00000000      -3.84822914      -2.63724423      -0.00000000
3
Lattice="15.0 0.0 0.0 0.0 15.0 0.0 0.0 0.0 15.0" Properties=species:S:1:pos:R:3:MACE_forces:R:3 energy=2.0650627446 MACE_energy=2.0330642744905547 pbc="T T T"
O        0.00000000       0.00000000       0.00000000       2.74977201       5.51249398      -0.00000000
H        0.95883000       0.00000000       0.00000000       0.99842804      -2.71180580      -0.00000000
H        0.56667000       1.11713000       0.00000000      -3.74820005      -2.80068818      -0.00000000
3
Lattice="15.0 0.0 0.0 0.0 15.0 0.0 0.0 0.0 15.0" Properties=species:S:1:pos:R:3:MACE_forces:R:3 energy=2.227764778 MACE_energy=2.185903327244386 pbc="T T T"
O        0.00000000       0.00000000       0.00000000       2.59115388       5.33865181      -0.00000000
H        0.95883000       0.00000000       0.00000000       0.96181042      -2.58759555      -0.00000000
H        0.58333000       1.14998000       0.00000000      -3.55296430      -2.75105626      -0.00000000
3
Lattice="15.0 0.0 0.0 0.0 15.0 0.0 0.0 0.0 15.0" Properties=species:S:1:pos:R:3:MACE_forces:R:3 energy=2.3939361625 MACE_energy=2.3285258237965403 pbc="T T T"
O        0.00000000       0.00000000       0.00000000       2.29989141       4.89131758      -0.00000000
H        0.95883000       0.00000000       0.00000000       0.92947742      -2.46653949      -0.00000000
H        0.60000000       1.18285000       0.00000000      -3.22936882      -2.42477809      -0.00000000
3
Lattice="15.0 0.0 0.0 0.0 15.0 0.0 0.0 0.0 15.0" Properties=species:S:1:pos:R:3:MACE_forces:R:3 energy=2.5611792811 MACE_energy=2.448610356356259 pbc="T T T"
O        0.00000000       0.00000000       0.00000000       1.85735076       4.12922006      -0.00000000
H        0.95883000       0.00000000       0.00000000       0.89791140      -2.34745758      -0.00000000
H        0.61667000       1.21570000       0.00000000      -2.75526217      -1.78176247      -0.00000000
3
Lattice="15.0 0.0 0.0 0.0 15.0 0.0 0.0 0.0 15.0" Properties=species:S:1:pos:R:3:MACE_forces:R:3 energy=2.72771769 MACE_energy=2.5330396374086783 pbc="T T T"
O        0.00000000       0.00000000       0.00000000       1.26241884       3.04726900      -0.00000000
H        0.95883000       0.00000000       0.00000000       0.86436552      -2.22878568      -0.00000000
H        0.63333000       1.24855000       0.00000000      -2.12678436      -0.81848331      -0.00000000
3
Lattice="15.0 0.0 0.0 0.0 15.0 0.0 0.0 0.0 15.0" Properties=species:S:1:pos:R:3:MACE_forces:R:3 energy=5.0648918782 MACE_energy=4.48576356251882 pbc="T T T"
O        0.00000000       0.00000000       0.00000000     -12.21759494     -28.80669747      -0.00000000
H        0.95883000       0.00000000       0.00000000      -0.00109942      -0.45653717      -0.00000000
H        0.28240000       0.64051000       0.00000000      12.21869437      29.26323465      -0.00000000
3
Lattice="15.0 0.0 0.0 0.0 15.0 0.0 0.0 0.0 15.0" Properties=species:S:1:pos:R:3:MACE_forces:R:3 energy=3.8441240072 MACE_energy=3.4735345215417905 pbc="T T T"
O        0.00000000       0.00000000       0.00000000      -8.82787104     -21.43330049      -0.00000000
H        0.95883000       0.00000000       0.00000000       0.28074738      -0.92043200      -0.00000000
H        0.29727000       0.67421000       0.00000000       8.54712366      22.35373250      -0.00000000
3
Lattice="15.0 0.0 0.0 0.0 15.0 0.0 0.0 0.0 15.0" Properties=species:S:1:pos:R:3:MACE_forces:R:3 energy=2.9370053823 MACE_energy=2.696493047828549 pbc="T T T"
O        0.00000000       0.00000000       0.00000000      -6.41459509     -16.16098688      -0.00000000
H        0.95883000       0.00000000       0.00000000       0.59348399      -1.42793855      -0.00000000
H        0.31213000       0.70792000       0.00000000       5.82111111      17.58892543      -0.00000000
3
Lattice="15.0 0.0 0.0 0.0 15.0 0.0 0.0 0.0 15.0" Properties=species:S:1:pos:R:3:MACE_forces:R:3 energy=2.2751626559 MACE_energy=2.1086338012077523 pbc="T T T"
O        0.00000000       0.00000000       0.00000000      -4.25948878     -11.37393610      -0.00000000
H        0.95883000       0.00000000       0.00000000       0.89667890      -1.93926023      -0.00000000
H        0.32700000       0.74164000       0.00000000       3.36280987      13.31319634      -0.00000000
3
Lattice="15.0 0.0 0.0 0.0 15.0 0.0 0.0 0.0 15.0" Properties=species:S:1:pos:R:3:MACE_forces:R:3 energy=1.8058117149 MACE_energy=1.6900879398554407 pbc="T T T"
O        0.00000000       0.00000000       0.00000000      -2.42511004      -7.23017852      -0.00000000
H        0.95883000       0.00000000       0.00000000       1.15505231      -2.41011649      -0.00000000
H        0.34186000       0.77535000       0.00000000       1.27005773       9.64029501      -0.00000000
3
Lattice="15.0 0.0 0.0 0.0 15.0 0.0 0.0 0.0 15.0" Properties=species:S:1:pos:R:3:MACE_forces:R:3 energy=1.4871985052 MACE_energy=1.4094307484454731 pbc="T T T"
O        0.00000000       0.00000000       0.00000000      -1.00146707      -3.95807292      -0.00000000
H        0.95883000       0.00000000       0.00000000       1.34404900      -2.80528991      -0.00000000
H        0.35672000       0.80906000       0.00000000      -0.34258193       6.76336282      -0.00000000
3
Lattice="15.0 0.0 0.0 0.0 15.0 0.0 0.0 0.0 15.0" Properties=species:S:1:pos:R:3:MACE_forces:R:3 energy=1.2867902365 MACE_energy=1.2349293249209277 pbc="T T T"
O        0.00000000       0.00000000       0.00000000       0.07543158      -1.43131286      -0.00000000
H        0.95883000       0.00000000       0.00000000       1.45171673      -3.09728739      -0.00000000
H        0.37158000       0.84277000       0.00000000      -1.52714831       4.52860025      -0.00000000
3
Lattice="15.0 0.0 0.0 0.0 15.0 0.0 0.0 0.0 15.0" Properties=species:S:1:pos:R:3:MACE_forces:R:3 energy=1.1790257872 MACE_energy=1.1431635700093024 pbc="T T T"
O        0.00000000       0.00000000       0.00000000       0.90059862       0.55439503      -0.00000000
H        0.95883000       0.00000000       0.00000000       1.48126445      -3.27301685      -0.00000000
H        0.38645000       0.87648000       0.00000000      -2.38186307       2.71862181      -0.00000000
3
Lattice="15.0 0.0 0.0 0.0 15.0 0.0 0.0 0.0 15.0" Properties=species:S:1:pos:R:3:MACE_forces:R:3 energy=1.1436308164 MACE_energy=1.117777176245638 pbc="T T T"
O        0.00000000       0.00000000       0.00000000       1.53265839       2.12451551      -0.00000000
H        0.95883000       0.00000000       0.00000000       1.44880756      -3.33824973      -0.00000000
H        0.40131000       0.91020000       0.00000000      -2.98146595       1.21373423      -0.00000000
3
Lattice="15.0 0.0 0.0 0.0 15.0 0.0 0.0 0.0 15.0" Properties=species:S:1:pos:R:3:MACE_forces:R:3 energy=1.1647062933 MACE_energy=1.145893761912147 pbc="T T T"
O        0.00000000       0.00000000       0.00000000       1.99799100       3.33360252      -0.00000000
H        0.95883000       0.00000000       0.00000000       1.37706423      -3.31398864      -0.00000000
H        0.41618000       0.94390000       0.00000000      -3.37505523      -0.01961388      -0.00000000
3
Lattice="15.0 0.0 0.0 0.0 15.0 0.0 0.0 0.0 15.0" Properties=species:S:1:pos:R:3:MACE_forces:R:3 energy=1.2293932627 MACE_energy=1.2157141393885702 pbc="T T T"
O        0.00000000       0.00000000       0.00000000       2.31629139       4.22273144      -0.00000000
H        0.95883000       0.00000000       0.00000000       1.28871965      -3.22880064      -0.00000000
H        0.43104000       0.97761000       0.00000000      -3.60501105      -0.99393079      -0.00000000
3
Lattice="15.0 0.0 0.0 0.0 15.0 0.0 0.0 0.0 15.0" Properties=species:S:1:pos:R:3:MACE_forces:R:3 energy=1.327567195 MACE_energy=1.316878282490308 pbc="T T T"
O        0.00000000       0.00000000       0.00000000       2.51398557       4.84955866      -0.00000000
H        0.95883000       0.00000000       0.00000000       1.20143706      -3.10970894      -0.00000000
H        0.44590000       1.01132000       0.00000000      -3.71542263      -1.73984972      -0.00000000
3
Lattice="15.0 0.0 0.0 0.0 15.0 0.0 0.0 0.0 15.0" Properties=species:S:1:pos:R:3:MACE_forces:R:3 energy=1.4511338811 MACE_energy=1.4411251925874344 pbc="T T T"
O        0.00000000       0.00000000       0.00000000       2.62305657       5.28480639      -0.00000000
H        0.95883000       0.00000000       0.00000000       1.12562506      -2.97643258      -0.00000000
H        0.46077000       1.04504000       0.00000000      -3.74868163      -2.30837382      -0.00000000
3
Lattice="15.0 0.0 0.0 0.0 15.0 0.0 0.0 0.0 15.0" Properties=species:S:1:pos:R:3:MACE_forces:R:3 energy=1.5934183817 MACE_energy=1.5822592412965342 pbc="T T T"
O        0.00000000       0.00000000       0.00000000       2.66898443       5.58351581      -0.00000000
H        0.95883000       0.00000000       0.00000000       1.06486143      -2.83981498      -0.00000000
H        0.47563000       1.07875000       0.00000000      -3.73384586      -2.74370083      -0.00000000
3
Lattice="15.0 0.0 0.0 0.0 15.0 0.0 0.0 0.0 15.0" Properties=species:S:1:pos:R:3:MACE_forces:R:3 energy=1.7491954794 MACE_energy=1.7355158970778952 pbc="T T T"
O        0.00000000       0.00000000       0.00000000       2.65997354       5.75991321      -0.00000000
H        0.95883000       0.00000000       0.00000000       1.01769134      -2.70332503      -0.00000000
H        0.49049000       1.11246000       0.00000000      -3.67766488      -3.05658818      -0.00000000
3
Lattice="15.0 0.0 0.0 0.0 15.0 0.0 0.0 0.0 15.0" Properties=species:S:1:pos:R:3:MACE_forces:R:3 energy=1.9142066112 MACE_energy=1.8956261398156036 pbc="T T T"
O        0.00000000       0.00000000       0.00000000       2.58421285       5.78118040      -0.00000000
H        0.95883000       0.00000000       0.00000000       0.98015985      -2.56650247      -0.00000000
H        0.50535000       1.14617000       0.00000000      -3.56437270      -3.21467793      -0.00000000
3
Lattice="15.0 0.0 0.0 0.0 15.0 0.0 0.0 0.0 15.0" Properties=species:S:1:pos:R:3:MACE_forces:R:3 energy=2.0850529743 MACE_energy=2.055358463190253 pbc="T T T"
O        0.00000000       0.00000000       0.00000000       2.41699249       5.58441968      -0.00000000
H        0.95883000       0.00000000       0.00000000       0.94787118      -2.42814471      -0.00000000
H        0.52022000       1.17988000       0.00000000      -3.36486368      -3.15627497      -0.00000000
3
Lattice="15.0 0.0 0.0 0.0 15.0 0.0 0.0 0.0 15.0" Properties=species:S:1:pos:R:3:MACE_forces:R:3 energy=2.2588898444 MACE_energy=2.2047188639210757 pbc="T T T"
O        0.00000000       0.00000000       0.00000000       2.13257391       5.10494211      -0.00000000
H        0.95883000       0.00000000       0.00000000       0.91721533      -2.28823905      -0.00000000
H        0.53508000       1.21359000       0.00000000      -3.04978924      -2.81670306      -0.00000000
3
Lattice="15.0 0.0 0.0 0.0 15.0 0.0 0.0 0.0 15.0" Properties=species:S:1:pos:R:3:MACE_forces:R:3 energy=2.4335575977 MACE_energy=2.3315985161195667 pbc="T T T"
O        0.00000000       0.00000000       0.00000000       1.71489797       4.30089887      -0.00000000
H        0.95883000       0.00000000       0.00000000       0.88569311      -2.14840033      -0.00000000
H        0.54995000       1.24730000       0.00000000      -2.60059108      -2.15249853      -0.00000000
3
Lattice="15.0 0.0 0.0 0.0 15.0 0.0 0.0 0.0 15.0" Properties=species:S:1:pos:R:3:MACE_forces:R:3 energy=2.6071926708 MACE_energy=2.422759067452729 pbc="T T T"
O        0.00000000       0.00000000       0.00000000       1.16416832       3.16923681      -0.00000000
H        0.95883000       0.00000000       0.00000000       0.85172621      -2.01097510      -0.00000000
H        0.56481000       1.28101000       0.00000000      -2.01589453      -1.15826171      -0.00000000
3
Lattice="15.0 0.0 0.0 0.0 15.0 0.0 0.0 0.0 15.0" Properties=species:S:1:pos:R:3:MACE_forces:R:3 energy=4.8142780799 MACE_energy=4.424234794286183 pbc="T T T"
O        0.00000000       0.00000000       0.00000000     -10.07692015     -29.22108950      -0.00000000
H        0.95883000       0.00000000       0.00000000       1.03486390      -1.83464511      -0.00000000
H        0.24731000       0.65486000       0.00000000       9.04205625      31.05573461      -0.00000000
3
Lattice="15.0 0.0 0.0 0.0 15.0 0.0 0.0 0.0 15.0" Properties=species:S:1:pos:R:3:MACE_forces:R:3 energy=3.5986622195 MACE_energy=3.3903279195014426 pbc="T T T"
O        0.00000000       0.00000000       0.00000000      -7.19036440     -21.77084404      -0.00000000
H        0.95883000       0.00000000       0.00000000       1.18352608      -2.18607020      -0.00000000
H        0.26033000       0.68932000       0.00000000       6.00683832      23.95691424      -0.00000000
3
Lattice="15.0 0.0 0.0 0.0 15.0 0.0 0.0 0.0 15.0" Properties=species:S:1:pos:R:3:MACE_forces:R:3 energy=2.6977303426 MACE_energy=2.5893930773930083 pbc="T T T"
O        0.00000000       0.00000000       0.00000000      -5.12200077     -16.40735055      -0.00000000
H        0.95883000       0.00000000       0.00000000       1.37357257      -2.58492138      -0.00000000
H        0.27335000       0.72378000       0.00000000       3.74842820      18.99227193      -0.00000000
3