3
Lattice="15.0 0.0 0.0 0.0 15.0 0.0 0.0 0.0 15.0" Properties=species:S:1:pos:R:3:MACE_forces:R:3 energy=0.5382822088 MACE_energy=0.6083040881935446 pbc="T T T"
O        0.00000000       0.00000000       0.00000000      -1.43551792      -0.17474754      -0.00000000
H        0.95883000       0.00000000       0.00000000       2.93581546      -1.59432357      -0.00000000
H        0.35000000       0.60622000       0.00000000      -1.50029754       1.76907111      -0.00000000
3
Lattice="15.0 0.0 0.0 0.0 15.0 0.0 0.0 0.0 15.0" Properties=species:S:1:pos:R:3:MACE_forces:R:3 energy=0.4758311389 MACE_energy=0.569842284056871 pbc="T T T"
O        0.00000000       0.00000000       0.00000000      -1.75472304      -0.54665243      -0.00000000
H        0.95883000       0.00000000       0.00000000       2.93235387      -1.61390809      -0.00000000
H        0.36842000       0.63812000       0.00000000      -1.17763084       2.16056052      -0.00000000
3
Lattice="15.0 0.0 0.0 0.0 15.0 0.0 0.0 0.0 15.0" Properties=species:S:1:pos:R:3:MACE_forces:R:3 energy=0.4088044842 MACE_energy=0.5155458967082774 pbc="T T T"
O        0.00000000       0.00000000       0.00000000      -1.99420291      -0.81017452      -0.00000000
H        0.95883000       0.00000000       0.00000000       2.90350051      -1.61307817      -0.00000000
H        0.38684000       0.67003000       0.00000000      -0.90929760       2.42325269      -0.00000000
3
Lattice="15.0 0.0 0.0 0.0 15.0 0.0 0.0 0.0 15.0" Properties=species:S:1:pos:R:3:MACE_forces:R:3 energy=0.3341079104 MACE_energy=0.4499527217328576 pbc="T T T"
O        0.00000000       0.00000000       0.00000000      -2.17381156      -0.99868578      -0.00000000
H        0.95883000       0.00000000       0.00000000       2.85095465      -1.58980274      -0.00000000
H        0.40527000       0.70194000       0.00000000      -0.67714309       2.58848853      -0.00000000
3
Lattice="15.0 0.0 0.0 0.0 15.0 0.0 0.0 0.0 15.0" Properties=species:S:1:pos:R:3:MACE_forces:R:3 energy=0.2555901638 MACE_energy=0.3761338857831332 pbc="T T T"
O        0.00000000       0.00000000       0.00000000      -2.31537447      -1.14676813      -0.00000000
H        0.95883000       0.00000000       0.00000000       2.77602495      -1.53963064      -0.00000000
H        0.42369000       0.73384000       0.00000000      -0.46065048       2.68639877      -0.00000000
3
Lattice="15.0 0.0 0.0 0.0 15.0 0.0 0.0 0.0 15.0" Properties=species:S:1:pos:R:3:MACE_forces:R:3 energy=0.1733916427 MACE_energy=0.2960654798189313 pbc="T T T"
O        0.00000000       0.00000000       0.00000000      -2.43241107      -1.27514355      -0.00000000
H        0.95883000       0.00000000       0.00000000       2.67994100      -1.45784904      -0.00000000
H        0.44211000       0.76575000       0.00000000      -0.24752993       2.73299259      -0.00000000
3
Lattice="15.0 0.0 0.0 0.0 15.0 0.0 0.0 0.0 15.0" Properties=species:S:1:pos:R:3:MACE_forces:R:3 energy=0.0885974525 MACE_energy=0.21131982431244686 pbc="T T T"
O        0.00000000       0.00000000       0.00000000      -2.53127183      -1.39393207      -0.00000000
H        0.95883000       0.00000000       0.00000000       2.56466128      -1.34172313      -0.00000000
H        0.46053000       0.79765000       0.00000000      -0.03338945       2.73565520      -0.00000000
3
Lattice="15.0 0.0 0.0 0.0 15.0 0.0 0.0 0.0 15.0" Properties=species:S:1:pos:R:3:MACE_forces:R:3 energy=0.0021820196 MACE_energy=0.12315123471235209 pbc="T T T"
O        0.00000000       0.00000000       0.00000000      -2.61413189      -1.50753297      -0.00000000
H        0.95883000       0.00000000       0.00000000       2.43273114      -1.19102715      -0.00000000
H        0.47895000       0.82956000       0.00000000       0.18140075       2.69856012      -0.00000000
3
Lattice="15.0 0.0 0.0 0.0 15.0 0.0 0.0 0.0 15.0" Properties=species:S:1:pos:R:3:MACE_forces:R:3 energy=-0.0848282713 MACE_energy=0.032827017398300185 pbc="T T T"
O        0.00000000       0.00000000       0.00000000      -2.68045404      -1.61619459      -0.00000000
H        0.95883000       0.00000000       0.00000000       2.28742095      -1.00823579      -0.00000000
H        0.49737000       0.86147000       0.00000000       0.39303309       2.62443038      -0.00000000
3
Lattice="15.0 0.0 0.0 0.0 15.0 0.0 0.0 0.0 15.0" Properties=species:S:1:pos:R:3:MACE_forces:R:3 energy=-0.17161688 MACE_energy=-0.05835135799125549 pbc="T T T"
O        0.00000000       0.00000000       0.00000000      -2.72760921      -1.71624536      -0.00000000
H        0.95883000       0.00000000       0.00000000       2.13236496      -0.79778088      -0.00000000
H        0.51579000       0.89337000       0.00000000       0.59524425       2.51402624      -0.00000000
3
Lattice="15.0 0.0 0.0 0.0 15.0 0.0 0.0 0.0 15.0" Properties=species:S:1:pos:R:3:MACE_forces:R:3 energy=-0.2575035939 MACE_energy=-0.14900785258595362 pbc="T T T"
O        0.00000000       0.00000000       0.00000000      -2.75123577      -1.80015155      -0.00000000
H        0.95883000       0.00000000       0.00000000       1.97132174      -0.56525861      -0.00000000
H        0.53421000       0.92528000       0.00000000       0.77991402       2.36541017      -0.00000000
3
Lattice="15.0 0.0 0.0 0.0 15.0 0.0 0.0 0.0 15.0" Properties=species:S:1:pos:R:3:MACE_forces:R:3 energy=-0.3418695482 MACE_energy=-0.23741000525007172 pbc="T T T"
O        0.00000000       0.00000000       0.00000000      -2.74601457      -1.85716496      -0.00000000
H        0.95883000       0.00000000       0.00000000       1.80865812      -0.31783907      -0.00000000
H        0.55263000       0.95718000       0.00000000       0.93735644       2.17500403      -0.00000000
3
Lattice="15.0 0.0 0.0 0.0 15.0 0.0 0.0 0.0 15.0" Properties=species:S:1:pos:R:3:MACE_forces:R:3 energy=-0.4242247129 MACE_energy=-0.32163513709486313 pbc="T T T"
O        0.00000000       0.00000000       0.00000000      -2.70646747      -1.87487000      -0.00000000
H        0.95883000       0.00000000       0.00000000       1.64888106      -0.06345139      -0.00000000
H        0.57106000       0.98910000       0.00000000       1.05758641       1.93832139      -0.00000000
3
Lattice="15.0 0.0 0.0 0.0 15.0 0.0 0.0 0.0 15.0" Properties=species:S:1:pos:R:3:MACE_forces:R:3 energy=-0.5040513577 MACE_energy=-0.39927287376860887 pbc="T T T"
O        0.00000000       0.00000000       0.00000000      -2.62783574      -1.84048816      -0.00000000
H        0.95883000       0.00000000       0.00000000       1.49711760       0.18825575      -0.00000000
H        0.58948000       1.02100000       0.00000000       1.13071814       1.65223241      -0.00000000
3
Lattice="15.0 0.0 0.0 0.0 15.0 0.0 0.0 0.0 15.0" Properties=species:S:1:pos:R:3:MACE_forces:R:3 energy=-0.5812178879 MACE_energy=-0.46783097012201336 pbc="T T T"
O        0.00000000       0.00000000       0.00000000      -2.50635706      -1.74231411      -0.00000000
H        0.95883000       0.00000000       0.00000000       1.35799287       0.42735416      -0.00000000
H        0.60790000       1.05291000       0.00000000       1.14836419       1.31495995      -0.00000000
3
Lattice="15.0 0.0 0.0 0.0 15.0 0.0 0.0 0.0 15.0" Properties=species:S:1:pos:R:3:MACE_forces:R:3 energy=-0.6553337691 MACE_energy=-0.5245868503617253 pbc="T T T"
O        0.00000000       0.00000000       0.00000000      -2.34034309      -1.57186623      -0.00000000
H        0.95883000       0.00000000       0.00000000       1.23563792       0.64330085      -0.00000000
H        0.62632000       1.08481000       0.00000000       1.10470518       0.92856539      -0.00000000
3
Lattice="15.0 0.0 0.0 0.0 15.0 0.0 0.0 0.0 15.0" Properties=species:S:1:pos:R:3:MACE_forces:R:3 energy=-0.7263731762 MACE_energy=-0.5669390798605094 pbc="T T T"
O        0.00000000       0.00000000       0.00000000      -2.13137431      -1.32701282      -0.00000000
H        0.95883000       0.00000000       0.00000000       1.13271013       0.82664213      -0.00000000
H        0.64474000       1.11671000       0.00000000       0.99866417       0.50037069      -0.00000000
3
Lattice="15.0 0.0 0.0 0.0 15.0 0.0 0.0 0.0 15.0" Properties=species:S:1:pos:R:3:MACE_forces:R:3 energy=-0.7941357312 MACE_energy=-0.5926648595868371 pbc="T T T"
O        0.00000000       0.00000000       0.00000000      -1.88598703      -1.01524972      -0.00000000
H        0.95883000       0.00000000       0.00000000       1.05011639       0.97011223      -0.00000000
H        0.66316000       1.14863000       0.00000000       0.83587063       0.04513750      -0.00000000
3
Lattice="15.0 0.0 0.0 0.0 15.0 0.0 0.0 0.0 15.0" Properties=species:S:1:pos:R:3:MACE_forces:R:3 energy=-0.8586885966 MACE_energy=-0.6003085319980584 pbc="T T T"
O        0.00000000       0.00000000       0.00000000      -1.61689372      -0.65570635      -0.00000000
H        0.95883000       0.00000000       0.00000000       0.98708614       1.06975800      -0.00000000
H        0.68158000       1.18053000       0.00000000       0.62980757      -0.41405165      -0.00000000
3
Lattice="15.0 0.0 0.0 0.0 15.0 0.0 0.0 0.0 15.0" Properties=species:S:1:pos:R:3:MACE_forces:R:3 energy=-0.9198451374 MACE_energy=-0.5895413474438378 pbc="T T T"
O        0.00000000       0.00000000       0.00000000      -1.34099002      -0.27616510      -0.00000000
H        0.95883000       0.00000000       0.00000000       0.94109161       1.12636577      -0.00000000
H        0.70000000       1.21244000       0.00000000       0.39989841      -0.85020067      -0.00000000
3
Lattice="15.0 0.0 0.0 0.0 15.0 0.0 0.0 0.0 15.0" Properties=species:S:1:pos:R:3:MACE_forces:R:3 energy=0.4802886077 MACE_energy=0.5272851725915909 pbc="T T T"
O        0.00000000       0.00000000       0.00000000      -1.30971327      -0.13757822      -0.00000000
H        0.95883000       0.00000000       0.00000000       2.79697641      -1.51369679      -0.00000000
H        0.31667000       0.62428000       0.00000000      -1.48726314       1.65127501      -0.00000000
3
Lattice="15.0 0.0 0.0 0.0 15.0 0.0 0.0 0.0 15.0" Properties=species:S:1:pos:R:3:MACE_forces:R:3 energy=0.423029511 MACE_energy=0.48878864846542125 pbc="T T T"
O        0.00000000       0.00000000       0.00000000      -1.60766189      -0.51399787      -0.00000000
H        0.95883000       0.00000000       0.00000000       2.77068737      -1.49574715      -0.00000000
H        0.33333000       0.65713000       0.00000000      -1.16302548       2.00974502      -0.00000000
3
Lattice="15.0 0.0 0.0 0.0 15.0 0.0 0.0 0.0 15.0" Properties=species:S:1:pos:R:3:MACE_forces:R:3 energy=0.3623498262 MACE_energy=0.4357003222912952 pbc="T T T"
O        0.00000000       0.00000000       0.00000000      -1.83524547      -0.78424851      -0.00000000
H        0.95883000       0.00000000       0.00000000       2.71844696      -1.45177993      -0.00000000
H        0.35000000       0.68999000       0.00000000      -0.88320149       2.23602844      -0.00000000
3
Lattice="15.0 0.0 0.0 0.0 15.0 0.0 0.0 0.0 15.0" Properties=species:S:1:pos:R:3:MACE_forces:R:3 energy=0.2952440144 MACE_energy=0.37257338622597236 pbc="T T T"
O        0.00000000       0.00000000       0.00000000      -2.00733630      -0.97854407      -0.00000000
H        0.95883000       0.00000000       0.00000000       2.64342748      -1.38239878      -0.00000000
H        0.36667000       0.72285000       0.00000000      -0.63609118       2.36094286      -0.00000000
3
Lattice="15.0 0.0 0.0 0.0 15.0 0.0 0.0 0.0 15.0" Properties=species:S:1:pos:R:3:MACE_forces:R:3 energy=0.2251810565 MACE_energy=0.302599087726072 pbc="T T T"
O        0.00000000       0.00000000       0.00000000      -2.14195742      -1.12942453      -0.00000000
H        0.95883000       0.00000000       0.00000000       2.54890188      -1.28666256      -0.00000000
H        0.38333000       0.75571000       0.00000000      -0.40694446       2.41608709      -0.00000000
3
Lattice="15.0 0.0 0.0 0.0 15.0 0.0 0.0 0.0 15.0" Properties=species:S:1:pos:R:3:MACE_forces:R:3 energy=0.15241203 MACE_energy=0.22797432133918552 pbc="T T T"
O        0.00000000       0.00000000       0.00000000      -2.25111935      -1.25711640      -0.00000000
H        0.95883000       0.00000000       0.00000000       2.43808535      -1.16364630      -0.00000000
H        0.40000000       0.78856000       0.00000000      -0.18696599       2.42076270      -0.00000000
3
Lattice="15.0 0.0 0.0 0.0 15.0 0.0 0.0 0.0 15.0" Properties=species:S:1:pos:R:3:MACE_forces:R:3 energy=0.0775839299 MACE_energy=0.15022589519823557 pbc="T T T"
O        0.00000000       0.00000000       0.00000000      -2.34127637      -1.37263886      -0.00000000
H        0.95883000       0.00000000       0.00000000       2.31379718      -1.01329031      -0.00000000
H        0.41667000       0.82142000       0.00000000       0.02747919       2.38592916      -0.00000000
3
Lattice="15.0 0.0 0.0 0.0 15.0 0.0 0.0 0.0 15.0" Properties=species:S:1:pos:R:3:MACE_forces:R:3 energy=0.0016482145 MACE_energy=0.0706628557859721 pbc="T T T"
O        0.00000000       0.00000000       0.00000000      -2.41530322      -1.48142836      -0.00000000
H        0.95883000       0.00000000       0.00000000       2.17899295      -0.83743974      -0.00000000
H        0.43333000       0.85427000       0.00000000       0.23631026       2.31886809      -0.00000000
3
Lattice="15.0 0.0 0.0 0.0 15.0 0.0 0.0 0.0 15.0" Properties=species:S:1:pos:R:3:MACE_forces:R:3 energy=-0.0746224774 MACE_energy=-0.00967871169167081 pbc="T T T"
O        0.00000000       0.00000000       0.00000000      -2.47360101      -1.58483459      -0.00000000
H        0.95883000       0.00000000       0.00000000       2.03639139      -0.63933691      -0.00000000
H        0.45000000       0.88713000       0.00000000       0.43720962       2.22417150      -0.00000000
3
Lattice="15.0 0.0 0.0 0.0 15.0 0.0 0.0 0.0 15.0" Properties=species:S:1:pos:R:3:MACE_forces:R:3 energy=-0.1505338996 MACE_energy=-0.08973361104876013 pbc="T T T"
O        0.00000000       0.00000000       0.00000000      -2.51425811      -1.67989330      -0.00000000
H        0.95883000       0.00000000       0.00000000       1.88876061      -0.42365157      -0.00000000
H        0.46667000       0.91999000       0.00000000       0.62549751       2.10354487      -0.00000000
3
Lattice="15.0 0.0 0.0 0.0 15.0 0.0 0.0 0.0 15.0" Properties=species:S:1:pos:R:3:MACE_forces:R:3 energy=-0.2255788351 MACE_energy=-0.16834870087080442 pbc="T T T"
O        0.00000000       0.00000000       0.00000000      -2.53366384      -1.75959696      -0.00000000
H        0.95883000       0.00000000       0.00000000       1.73906870      -0.19630697      -0.00000000
H        0.48333000       0.95284000       0.00000000       0.79459514       1.95590392      -0.00000000
3
Lattice="15.0 0.0 0.0 0.0 15.0 0.0 0.0 0.0 15.0" Properties=species:S:1:pos:R:3:MACE_forces:R:3 energy=-0.2992006129 MACE_energy=-0.24426073115288957 pbc="T T T"
O        0.00000000       0.00000000       0.00000000      -2.52730516      -1.81386855      -0.00000000
H        0.95883000       0.00000000       0.00000000       1.59059746       0.03569625      -0.00000000
H        0.50000000       0.98570000       0.00000000       0.93670771       1.77817230      -0.00000000
3
Lattice="15.0 0.0 0.0 0.0 15.0 0.0 0.0 0.0 15.0" Properties=species:S:1:pos:R:3:MACE_forces:R:3 energy=-0.3710470907 MACE_energy=-0.31587328576357654 pbc="T T T"
O        0.00000000       0.00000000       0.00000000      -2.49049231      -1.83074159      -0.00000000
H        0.95883000       0.00000000       0.00000000       1.44724566       0.26397694      -0.00000000
H        0.51667000       1.01856000       0.00000000       1.04324665       1.56676465      -0.00000000
3
Lattice="15.0 0.0 0.0 0.0 15.0 0.0 0.0 0.0 15.0" Properties=species:S:1:pos:R:3:MACE_forces:R:3 energy=-0.4407144736 MACE_energy=-0.38135055280429886 pbc="T T T"
O        0.00000000       0.00000000       0.00000000      -2.41909393      -1.79777829      -0.00000000
H        0.95883000       0.00000000       0.00000000       1.31318410       0.47935749      -0.00000000
H        0.53333000       1.05142000       0.00000000       1.10590983       1.31842080      -0.00000000
3
Lattice="15.0 0.0 0.0 0.0 15.0 0.0 0.0 0.0 15.0" Properties=species:S:1:pos:R:3:MACE_forces:R:3 energy=-0.5080323577 MACE_energy=-0.43865470257039907 pbc="T T T"
O        0.00000000       0.00000000       0.00000000      -2.31007505      -1.70333623      -0.00000000
H        0.95883000       0.00000000       0.00000000       1.19247909       0.67250652      -0.00000000
H        0.55000000       1.08427000       0.00000000       1.11759596       1.03082971      -0.00000000
3
Lattice="15.0 0.0 0.0 0.0 15.0 0.0 0.0 0.0 15.0" Properties=species:S:1:pos:R:3:MACE_forces:R:3 energy=-0.5727296226 MACE_energy=-0.4855943414486418 pbc="T T T"
O        0.00000000       0.00000000       0.00000000      -2.16188326      -1.53850142      -0.00000000
H        0.95883000       0.00000000       0.00000000       1.08821341       0.83538912      -0.00000000
H        0.56667000       1.11713000       0.00000000       1.07366985       0.70311231      -0.00000000
3
Lattice="15.0 0.0 0.0 0.0 15.0 0.0 0.0 0.0 15.0" Properties=species:S:1:pos:R:3:MACE_forces:R:3 energy=-0.6347510004 MACE_energy=-0.5199275385061614 pbc="T T T"
O        0.00000000       0.00000000       0.00000000      -1.97613319      -1.30069372      -0.00000000
H        0.95883000       0.00000000       0.00000000       1.00218915       0.96213717      -0.00000000
H        0.58333000       1.14998000       0.00000000       0.97394405       0.33855656      -0.00000000
3
Lattice="15.0 0.0 0.0 0.0 15.0 0.0 0.0 0.0 15.0" Properties=species:S:1:pos:R:3:MACE_forces:R:3 energy=-0.6938999211 MACE_energy=-0.5397120020446136 pbc="T T T"
O        0.00000000       0.00000000       0.00000000      -1.75854685      -0.99660210      -0.00000000
H        0.95883000       0.00000000       0.00000000       0.93432594       1.05054885      -0.00000000
H        0.60000000       1.18285000       0.00000000       0.82422091      -0.05394676      -0.00000000
3
Lattice="15.0 0.0 0.0 0.0 15.0 0.0 0.0 0.0 15.0" Properties=species:S:1:pos:R:3:MACE_forces:R:3 energy=-0.7502547993 MACE_energy=-0.5435362372407567 pbc="T T T"
O        0.00000000       0.00000000       0.00000000      -1.52025145      -0.64465434      -0.00000000
H        0.95883000       0.00000000       0.00000000       0.88306741       1.10207403      -0.00000000
H        0.61667000       1.21570000       0.00000000       0.63718404      -0.45741969      -0.00000000
3
Lattice="15.0 0.0 0.0 0.0 15.0 0.0 0.0 0.0 15.0" Properties=species:S:1:pos:R:3:MACE_forces:R:3 energy=-0.8036064391 MACE_energy=-0.5309132341387297 pbc="T T T"
O        0.00000000       0.00000000       0.00000000      -1.27606096      -0.27218979      -0.00000000
H        0.95883000       0.00000000       0.00000000       0.84558795       1.12160099      -0.00000000
H        0.63333000       1.24855000       0.00000000       0.43047301      -0.84941120      -0.00000000
3
Lattice="15.0 0.0 0.0 0.0 15.0 0.0 0.0 0.0 15.0" Properties=species:S:1:pos:R:3:MACE_forces:R:3 energy=0.4268338458 MACE_energy=0.4520028704408088 pbc="T T T"
O        0.00000000       0.00000000       0.00000000      -1.16438443      -0.08957005      -0.00000000
H        0.95883000       0.00000000       0.00000000       2.58105673      -1.37883796      -0.00000000
H        0.28240000       0.64051000       0.00000000      -1.41667231       1.46840801      -0.00000000
3
Lattice="15.0 0.0 0.0 0.0 15.0 0.0 0.0 0.0 15.0" Properties=species:S:1:pos:R:3:MACE_forces:R:3 energy=0.3747892737 MACE_energy=0.41529941234321943 pbc="T T T"
O        0.00000000       0.00000000       0.00000000      -1.43724057      -0.46485540      -0.00000000
H        0.95883000       0.00000000       0.00000000       2.53751400      -1.33019365      -0.00000000
H        0.29727000       0.67421000       0.00000000      -1.10027343       1.79504905      -0.00000000
3
Lattice="15.0 0.0 0.0 0.0 15.0 0.0 0.0 0.0 15.0" Properties=species:S:1:pos:R:3:MACE_forces:R:3 energy=0.3205171115 MACE_energy=0.36538253101248097 pbc="T T T"
O        0.00000000       0.00000000       0.00000000      -1.64902646      -0.73679993      -0.00000000
H        0.95883000       0.00000000       0.00000000       2.46986809      -1.25416354      -0.00000000
H        0.31213000       0.70792000       0.00000000      -0.82084162       1.99096347      -0.00000000
3
Lattice="15.0 0.0 0.0 0.0 15.0 0.0 0.0 0.0 15.0" Properties=species:S:1:pos:R:3:MACE_forces:R:3 energy=0.2604397281 MACE_energy=0.306721880967856 pbc="T T T"
O        0.00000000       0.00000000       0.00000000      -1.81076408      -0.93315032      -0.00000000
H        0.95883000       0.00000000       0.00000000       2.38216532      -1.15365553      -0.00000000
H        0.32700000       0.74164000       0.00000000      -0.57140125       2.08680586      -0.00000000
3
Lattice="15.0 0.0 0.0 0.0 15.0 0.0 0.0 0.0 15.0" Properties=species:S:1:pos:R:3:MACE_forces:R:3 energy=0.1983260908 MACE_energy=0.2425161701032428 pbc="T T T"
O        0.00000000       0.00000000       0.00000000      -1.93693651      -1.08428426      -0.00000000
H        0.95883000       0.00000000       0.00000000       2.27871563      -1.03031242      -0.00000000
H        0.34186000       0.77535000       0.00000000      -0.34177911       2.11459668      -0.00000000
3
Lattice="15.0 0.0 0.0 0.0 15.0 0.0 0.0 0.0 15.0" Properties=species:S:1:pos:R:3:MACE_forces:R:3 energy=0.1340720401 MACE_energy=0.17490739591682164 pbc="T T T"
O        0.00000000       0.00000000       0.00000000      -2.03798864      -1.20978971      -0.00000000
H        0.95883000       0.00000000       0.00000000       2.16343551      -0.88530372      -0.00000000
H        0.35672000       0.80906000       0.00000000      -0.12544686       2.09509342      -0.00000000
3
Lattice="15.0 0.0 0.0 0.0 15.0 0.0 0.0 0.0 15.0" Properties=species:S:1:pos:R:3:MACE_forces:R:3 energy=0.0682714361 MACE_energy=0.10542811637807024 pbc="T T T"
O        0.00000000       0.00000000       0.00000000      -2.12021204      -1.32101544      -0.00000000
H        0.95883000       0.00000000       0.00000000       2.03966425      -0.72027188      -0.00000000
H        0.37158000       0.84277000       0.00000000       0.08054779       2.04128732      -0.00000000
3
Lattice="15.0 0.0 0.0 0.0 15.0 0.0 0.0 0.0 15.0" Properties=species:S:1:pos:R:3:MACE_forces:R:3 energy=0.0016801184 MACE_energy=0.03521968903338443 pbc="T T T"
O        0.00000000       0.00000000       0.00000000      -2.18699395      -1.42430220      -0.00000000
H        0.95883000       0.00000000       0.00000000       1.91022353      -0.53782077      -0.00000000
H        0.38645000       0.87648000       0.00000000       0.27677042       1.96212297      -0.00000000
3
Lattice="15.0 0.0 0.0 0.0 15.0 0.0 0.0 0.0 15.0" Properties=species:S:1:pos:R:3:MACE_forces:R:3 energy=-0.0650243013 MACE_energy=-0.03482861165520541 pbc="T T T"
O        0.00000000       0.00000000       0.00000000      -2.23915348      -1.52176625      -0.00000000
H        0.95883000       0.00000000       0.00000000       1.77735502      -0.34146049      -0.00000000
H        0.40131000       0.91020000       0.00000000       0.46179846       1.86322674      -0.00000000
3
Lattice="15.0 0.0 0.0 0.0 15.0 0.0 0.0 0.0 15.0" Properties=species:S:1:pos:R:3:MACE_forces:R:3 energy=-0.1313101084 MACE_energy=-0.10387115893768323 pbc="T T T"
O        0.00000000       0.00000000       0.00000000      -2.27564333      -1.61136318      -0.00000000
H        0.95883000       0.00000000       0.00000000       1.64345771      -0.13617824      -0.00000000
H        0.41618000       0.94390000       0.00000000       0.63218562       1.74754142      -0.00000000
3
Lattice="15.0 0.0 0.0 0.0 15.0 0.0 0.0 0.0 15.0" Properties=species:S:1:pos:R:3:MACE_forces:R:3 energy=-0.1967495903 MACE_energy=-0.17113368043707558 pbc="T T T"
O        0.00000000       0.00000000       0.00000000      -2.29354093      -1.68704355      -0.00000000
H        0.95883000       0.00000000       0.00000000       1.51062075       0.07239119      -0.00000000
H        0.43104000       0.97761000       0.00000000       0.78292018       1.61465236      -0.00000000
3
Lattice="15.0 0.0 0.0 0.0 15.0 0.0 0.0 0.0 15.0" Properties=species:S:1:pos:R:3:MACE_forces:R:3 energy=-0.2609126656 MACE_energy=-0.23565354991391171 pbc="T T T"
O        0.00000000       0.00000000       0.00000000      -2.28915287      -1.73959348      -0.00000000
H        0.95883000       0.00000000       0.00000000       1.38158068       0.27715512      -0.00000000
H        0.44590000       1.01132000       0.00000000       0.90757219       1.46243836      -0.00000000
3
Lattice="15.0 0.0 0.0 0.0 15.0 0.0 0.0 0.0 15.0" Properties=species:S:1:pos:R:3:MACE_forces:R:3 energy=-0.3234603925 MACE_energy=-0.2963088618716039 pbc="T T T"
O        0.00000000       0.00000000       0.00000000      -2.25857730      -1.75785171      -0.00000000
H        0.95883000       0.00000000       0.00000000       1.25934518       0.47036945      -0.00000000
H        0.46077000       1.04504000       0.00000000       0.99923213       1.28748225      -0.00000000
3
Lattice="15.0 0.0 0.0 0.0 15.0 0.0 0.0 0.0 15.0" Properties=species:S:1:pos:R:3:MACE_forces:R:3 energy=-0.3841166584 MACE_energy=-0.35167740346397725 pbc="T T T"
O        0.00000000       0.00000000       0.00000000      -2.19826948      -1.72971023      -0.00000000
H        0.95883000       0.00000000       0.00000000       1.14712575       0.64407952      -0.00000000
H        0.47563000       1.07875000       0.00000000       1.05114373       1.08563071      -0.00000000
3
Lattice="15.0 0.0 0.0 0.0 15.0 0.0 0.0 0.0 15.0" Properties=species:S:1:pos:R:3:MACE_forces:R:3 energy=-0.4426864514 MACE_energy=-0.40015734436031813 pbc="T T T"
O        0.00000000       0.00000000       0.00000000      -2.10545407      -1.64329123      -0.00000000
H        0.95883000       0.00000000       0.00000000       1.04767146       0.79156794      -0.00000000
H        0.49049000       1.11246000       0.00000000       1.05778261       0.85172330      -0.00000000
3
Lattice="15.0 0.0 0.0 0.0 15.0 0.0 0.0 0.0 15.0" Properties=species:S:1:pos:R:3:MACE_forces:R:3 energy=-0.4989966171 MACE_energy=-0.4398781728445784 pbc="T T T"
O        0.00000000       0.00000000       0.00000000      -1.97868384      -1.48896177      -0.00000000
H        0.95883000       0.00000000       0.00000000       0.96282614       0.90830640      -0.00000000
H        0.50535000       1.14617000       0.00000000       1.01585770       0.58065537      -0.00000000
3
Lattice="15.0 0.0 0.0 0.0 15.0 0.0 0.0 0.0 15.0" Properties=species:S:1:pos:R:3:MACE_forces:R:3 energy=-0.5529034353 MACE_energy=-0.46882020715274364 pbc="T T T"
O        0.00000000       0.00000000       0.00000000      -1.81900245      -1.26285169      -0.00000000
H        0.95883000       0.00000000       0.00000000       0.89312812       0.99281797      -0.00000000
H        0.52022000       1.17988000       0.00000000       0.92587433       0.27003372      -0.00000000
3
Lattice="15.0 0.0 0.0 0.0 15.0 0.0 0.0 0.0 15.0" Properties=species:S:1:pos:R:3:MACE_forces:R:3 energy=-0.6043275893 MACE_energy=-0.4849984934754993 pbc="T T T"
O        0.00000000       0.00000000       0.00000000      -1.63123876      -0.97071976      -0.00000000
H        0.95883000       0.00000000       0.00000000       0.83776419       1.04670224      -0.00000000
H        0.53508000       1.21359000       0.00000000       0.79347457      -0.07598248      -0.00000000
3
Lattice="15.0 0.0 0.0 0.0 15.0 0.0 0.0 0.0 15.0" Properties=species:S:1:pos:R:3:MACE_forces:R:3 energy=-0.653318205 MACE_energy=-0.48687612198594155 pbc="T T T"
O        0.00000000       0.00000000       0.00000000      -1.42461585      -0.62963114      -0.00000000
H        0.95883000       0.00000000       0.00000000       0.79495699       1.07392843      -0.00000000
H        0.54995000       1.24730000       0.00000000       0.62965886      -0.44429729      -0.00000000
3
Lattice="15.0 0.0 0.0 0.0 15.0 0.0 0.0 0.0 15.0" Properties=species:S:1:pos:R:3:MACE_forces:R:3 energy=-0.6996331824 MACE_energy=-0.47367810786398357 pbc="T T T"
O        0.00000000       0.00000000       0.00000000      -1.21200168      -0.26652907      -0.00000000
H        0.95883000       0.00000000       0.00000000       0.76245697       1.07947053      -0.00000000
H        0.56481000       1.28101000       0.00000000       0.44954471      -0.81294146      -0.00000000
3
Lattice="15.0 0.0 0.0 0.0 15.0 0.0 0.0 0.0 15.0" Properties=species:S:1:pos:R:3:MACE_forces:R:3 energy=0.3768039013 MACE_energy=0.38441035203072493 pbc="T T T"
O        0.00000000       0.00000000       0.00000000      -1.00351674      -0.03171754      -0.00000000
H        0.95883000       0.00000000       0.00000000       2.32013560      -1.22279780      -0.00000000
H        0.24731000       0.65486000       0.00000000      -1.31661886       1.25451534      -0.00000000
3
Lattice="15.0 0.0 0.0 0.0 15.0 0.0 0.0 0.0 15.0" Properties=species:S:1:pos:R:3:MACE_forces:R:3 energy=0.3299412912 MACE_energy=0.35081368441836613 pbc="T T T"
O        0.00000000       0.00000000       0.00000000      -1.24900453      -0.40045603      -0.00000000
H        0.95883000       0.00000000       0.00000000       2.26607132      -1.15294945      -0.00000000
H        0.26033000       0.68932000       0.00000000      -1.01706679       1.55340548      -0.00000000
3
Lattice="15.0 0.0 0.0 0.0 15.0 0.0 0.0 0.0 15.0" Properties=species:S:1:pos:R:3:MACE_forces:R:3 energy=0.2818164438 MACE_energy=0.3054326953181048 pbc="T T T"
O        0.00000000       0.00000000       0.00000000      -1.44303295      -0.66961017      -0.00000000
H        0.95883000       0.00000000       0.00000000       2.19093697      -1.05671342      -0.00000000