3
Lattice="15.0 0.0 0.0 0.0 15.0 0.0 0.0 0.0 15.0" Properties=species:S:1:pos:R:3:MACE_forces:R:3 energy=-4.2633185238 MACE_energy=2.0792525023343438 pbc="T T T"
O        0.00000000       0.00000000       0.00000000     -15.40032849     -33.34913425      -0.00000000
H        0.95883000       0.00000000       0.00000000       6.25658948     -10.06698015      -0.00000000
H        0.35000000       0.60622000       0.00000000       9.14373901      43.41611440      -0.00000000
3
Lattice="15.0 0.0 0.0 0.0 15.0 0.0 0.0 0.0 15.0" Properties=species:S:1:pos:R:3:MACE_forces:R:3 energy=-4.3582045039 MACE_energy=0.48218492321118916 pbc="T T T"
O        0.00000000       0.00000000       0.00000000     -13.90937756     -30.82306754      -0.00000000
H        0.95883000       0.00000000       0.00000000       2.85858086      -7.29001906      -0.00000000
H        0.36842000       0.63812000       0.00000000      11.05079670      38.11308659      -0.00000000
3
Lattice="15.0 0.0 0.0 0.0 15.0 0.0 0.0 0.0 15.0" Properties=species:S:1:pos:R:3:MACE_forces:R:3 energy=-4.26109376 MACE_energy=-0.5410768218676627 pbc="T T T"
O        0.00000000       0.00000000       0.00000000      -5.45517554     -16.09557670      -0.00000000
H        0.95883000       0.00000000       0.00000000      -5.31554543       1.73131222      -0.00000000
H        0.38684000       0.67003000       0.00000000      10.77072096      14.36426448      -0.00000000
3
Lattice="15.0 0.0 0.0 0.0 15.0 0.0 0.0 0.0 15.0" Properties=species:S:1:pos:R:3:MACE_forces:R:3 energy=-4.0315681007 MACE_energy=-0.9657837740406074 pbc="T T T"
O        0.00000000       0.00000000       0.00000000      -0.70401357      -6.90773659      -0.00000000
H        0.95883000       0.00000000       0.00000000      -5.15747483       2.37537893      -0.00000000
H        0.40527000       0.70194000       0.00000000       5.86148841       4.53235766      -0.00000000
3
Lattice="15.0 0.0 0.0 0.0 15.0 0.0 0.0 0.0 15.0" Properties=species:S:1:pos:R:3:MACE_forces:R:3 energy=-3.714262765 MACE_energy=-1.1266102499602377 pbc="T T T"
O        0.00000000       0.00000000       0.00000000       2.04920840      -2.41366111      -0.00000000
H        0.95883000       0.00000000       0.00000000      -3.36538983      -0.10609840      -0.00000000
H        0.42369000       0.73384000       0.00000000       1.31618142       2.51975952      -0.00000000
3
Lattice="15.0 0.0 0.0 0.0 15.0 0.0 0.0 0.0 15.0" Properties=species:S:1:pos:R:3:MACE_forces:R:3 energy=-3.3425568929 MACE_energy=-1.3402438455743007 pbc="T T T"
O        0.00000000       0.00000000       0.00000000      -0.10975371      -5.58235847      -0.00000000
H        0.95883000       0.00000000       0.00000000      -0.99668832      -3.13662819      -0.00000000
H        0.44211000       0.76575000       0.00000000       1.10644203       8.71898666      -0.00000000
3
Lattice="15.0 0.0 0.0 0.0 15.0 0.0 0.0 0.0 15.0" Properties=species:S:1:pos:R:3:MACE_forces:R:3 energy=-2.9420385367 MACE_energy=-1.4984835586411351 pbc="T T T"
O        0.00000000       0.00000000       0.00000000       1.74004685       0.22931073      -0.00000000
H        0.95883000       0.00000000       0.00000000       0.93558099      -4.07106177      -0.00000000
H        0.46053000       0.79765000       0.00000000      -2.67562784       3.84175104      -0.00000000
3
Lattice="15.0 0.0 0.0 0.0 15.0 0.0 0.0 0.0 15.0" Properties=species:S:1:pos:R:3:MACE_forces:R:3 energy=-2.5314772528 MACE_energy=-1.5558775139585148 pbc="T T T"
O        0.00000000       0.00000000       0.00000000       1.38792651       0.81813730      -0.00000000
H        0.95883000       0.00000000       0.00000000       2.16083069      -5.31812154      -0.00000000
H        0.47895000       0.82956000       0.00000000      -3.54875720       4.49998424      -0.00000000
3
Lattice="15.0 0.0 0.0 0.0 15.0 0.0 0.0 0.0 15.0" Properties=species:S:1:pos:R:3:MACE_forces:R:3 energy=-2.125219788 MACE_energy=-1.6936468360202344 pbc="T T T"
O        0.00000000       0.00000000       0.00000000      -1.52243116      -2.04231172      -0.00000000
H        0.95883000       0.00000000       0.00000000       3.12871769      -5.19991382      -0.00000000
H        0.49737000       0.86147000       0.00000000      -1.60628653       7.24222554      -0.00000000
3
Lattice="15.0 0.0 0.0 0.0 15.0 0.0 0.0 0.0 15.0" Properties=species:S:1:pos:R:3:MACE_forces:R:3 energy=-1.7338357492 MACE_energy=-1.9476467843196243 pbc="T T T"
O        0.00000000       0.00000000       0.00000000      -4.64174030      -5.09929230      -0.00000000
H        0.95883000       0.00000000       0.00000000       3.37850488      -3.38937196      -0.00000000
H        0.51579000       0.89337000       0.00000000       1.26323542       8.48866426      -0.00000000
3
Lattice="15.0 0.0 0.0 0.0 15.0 0.0 0.0 0.0 15.0" Properties=species:S:1:pos:R:3:MACE_forces:R:3 energy=-1.364888547 MACE_energy=-2.2513522422508196 pbc="T T T"
O        0.00000000       0.00000000       0.00000000      -6.29819144      -6.89545440      -0.00000000
H        0.95883000       0.00000000       0.00000000       2.42400961      -0.23295589      -0.00000000
H        0.53421000       0.92528000       0.00000000       3.87418183       7.12841029      -0.00000000
3
Lattice="15.0 0.0 0.0 0.0 15.0 0.0 0.0 0.0 15.0" Properties=species:S:1:pos:R:3:MACE_forces:R:3 energy=-1.0243107749 MACE_energy=-2.5206053435225186 pbc="T T T"
O        0.00000000       0.00000000       0.00000000      -6.21271721      -7.71908980      -0.00000000
H        0.95883000       0.00000000       0.00000000      -0.09957804       4.37272815      -0.00000000
H        0.55263000       0.95718000       0.00000000       6.31229526       3.34636165      -0.00000000
3
Lattice="15.0 0.0 0.0 0.0 15.0 0.0 0.0 0.0 15.0" Properties=species:S:1:pos:R:3:MACE_forces:R:3 energy=-0.7157321932 MACE_energy=-2.6206023237576903 pbc="T T T"
O        0.00000000       0.00000000       0.00000000      -2.79379677      -4.63949230      -0.00000000
H        0.95883000       0.00000000       0.00000000      -4.40039314      11.51802556      -0.00000000
H        0.57106000       0.98910000       0.00000000       7.19418991      -6.87853326      -0.00000000
3
Lattice="15.0 0.0 0.0 0.0 15.0 0.0 0.0 0.0 15.0" Properties=species:S:1:pos:R:3:MACE_forces:R:3 energy=-0.4425615506 MACE_energy=-2.23858667987954 pbc="T T T"
O        0.00000000       0.00000000       0.00000000       4.97909745       4.89293743      -0.00000000
H        0.95883000       0.00000000       0.00000000      -8.93050288      18.73202574      -0.00000000
H        0.58948000       1.02100000       0.00000000       3.95140543     -23.62496317      -0.00000000
3
Lattice="15.0 0.0 0.0 0.0 15.0 0.0 0.0 0.0 15.0" Properties=species:S:1:pos:R:3:MACE_forces:R:3 energy=-0.2065409409 MACE_energy=-1.3590719937162052 pbc="T T T"
O        0.00000000       0.00000000       0.00000000       9.79145345      11.58401565      -0.00000000
H        0.95883000       0.00000000       0.00000000      -9.22869508      18.37799333      -0.00000000
H        0.60790000       1.05291000       0.00000000      -0.56275837     -29.96200899      -0.00000000
3
Lattice="15.0 0.0 0.0 0.0 15.0 0.0 0.0 0.0 15.0" Properties=species:S:1:pos:R:3:MACE_forces:R:3 energy=-0.0090731617 MACE_energy=-0.7072680704254919 pbc="T T T"
O        0.00000000       0.00000000       0.00000000       2.88980927      -0.27649049      -0.00000000
H        0.95883000       0.00000000       0.00000000      -5.57013126       8.22371829      -0.00000000
H        0.62632000       1.08481000       0.00000000       2.68032199      -7.94722780      -0.00000000
3
Lattice="15.0 0.0 0.0 0.0 15.0 0.0 0.0 0.0 15.0" Properties=species:S:1:pos:R:3:MACE_forces:R:3 energy=0.148965948 MACE_energy=-1.0148284296719297 pbc="T T T"
O        0.00000000       0.00000000       0.00000000      -5.98290833     -17.99936174      -0.00000000
H        0.95883000       0.00000000       0.00000000      -4.71036450       1.07095487      -0.00000000
H        0.64474000       1.11671000       0.00000000      10.69327283      16.92840686      -0.00000000
3
Lattice="15.0 0.0 0.0 0.0 15.0 0.0 0.0 0.0 15.0" Properties=species:S:1:pos:R:3:MACE_forces:R:3 energy=0.2671030446 MACE_energy=-1.7698993306821464 pbc="T T T"
O        0.00000000       0.00000000       0.00000000      -2.79866596     -12.66086283      -0.00000000
H        0.95883000       0.00000000       0.00000000      -4.23536433      -1.07105754      -0.00000000
H        0.66316000       1.14863000       0.00000000       7.03403029      13.73192037      -0.00000000
3
Lattice="15.0 0.0 0.0 0.0 15.0 0.0 0.0 0.0 15.0" Properties=species:S:1:pos:R:3:MACE_forces:R:3 energy=0.345004633 MACE_energy=-1.9829834615627862 pbc="T T T"
O        0.00000000       0.00000000       0.00000000       6.67883445       3.07749661      -0.00000000
H        0.95883000       0.00000000       0.00000000      -4.95875561       0.24149853      -0.00000000
H        0.68158000       1.18053000       0.00000000      -1.72007884      -3.31899514      -0.00000000
3
Lattice="15.0 0.0 0.0 0.0 15.0 0.0 0.0 0.0 15.0" Properties=species:S:1:pos:R:3:MACE_forces:R:3 energy=0.3825651707 MACE_energy=-1.6058474769425033 pbc="T T T"
O        0.00000000       0.00000000       0.00000000      11.26868156      12.06448871      -0.00000000
H        0.95883000       0.00000000       0.00000000      -4.35618921       0.24788424      -0.00000000
H        0.70000000       1.21244000       0.00000000      -6.91249235     -12.31237295      -0.00000000
3
Lattice="15.0 0.0 0.0 0.0 15.0 0.0 0.0 0.0 15.0" Properties=species:S:1:pos:R:3:MACE_forces:R:3 energy=-3.2216034043 MACE_energy=1.6363164307653981 pbc="T T T"
O        0.00000000       0.00000000       0.00000000      -4.97906081     -30.23450982      -0.00000000
H        0.95883000       0.00000000       0.00000000     -10.61697864       0.25216968      -0.00000000
H        0.31667000       0.62428000       0.00000000      15.59603945      29.98234014      -0.00000000
3
Lattice="15.0 0.0 0.0 0.0 15.0 0.0 0.0 0.0 15.0" Properties=species:S:1:pos:R:3:MACE_forces:R:3 energy=-3.3703172647 MACE_energy=0.5905230298292772 pbc="T T T"
O        0.00000000       0.00000000       0.00000000      -5.55875913     -25.96813445      -0.00000000
H        0.95883000       0.00000000       0.00000000     -20.26475900      13.29088764      -0.00000000
H        0.33333000       0.65713000       0.00000000      25.82351814      12.67724682      -0.00000000
3
Lattice="15.0 0.0 0.0 0.0 15.0 0.0 0.0 0.0 15.0" Properties=species:S:1:pos:R:3:MACE_forces:R:3 energy=-3.3280534182 MACE_energy=-0.14914848855228696 pbc="T T T"
O        0.00000000       0.00000000       0.00000000      -6.17220817     -21.77415802      -0.00000000
H        0.95883000       0.00000000       0.00000000     -15.90669588      12.50475124      -0.00000000
H        0.35000000       0.68999000       0.00000000      22.07890405       9.26940678      -0.00000000
3
Lattice="15.0 0.0 0.0 0.0 15.0 0.0 0.0 0.0 15.0" Properties=species:S:1:pos:R:3:MACE_forces:R:3 energy=-3.153495691 MACE_energy=-0.7665523914819914 pbc="T T T"
O        0.00000000       0.00000000       0.00000000      -4.19083105     -14.97212784      -0.00000000
H        0.95883000       0.00000000       0.00000000      -7.04521500       4.44499084      -0.00000000
H        0.36667000       0.72285000       0.00000000      11.23604605      10.52713699      -0.00000000
3
Lattice="15.0 0.0 0.0 0.0 15.0 0.0 0.0 0.0 15.0" Properties=species:S:1:pos:R:3:MACE_forces:R:3 energy=-2.8907198978 MACE_energy=-1.1600193554366094 pbc="T T T"
O        0.00000000       0.00000000       0.00000000      -0.82784002      -6.09608438      -0.00000000
H        0.95883000       0.00000000       0.00000000      -1.50608205      -0.99573202      -0.00000000
H        0.38333000       0.75571000       0.00000000       2.33392207       7.09181639      -0.00000000
3
Lattice="15.0 0.0 0.0 0.0 15.0 0.0 0.0 0.0 15.0" Properties=species:S:1:pos:R:3:MACE_forces:R:3 energy=-2.5736173108 MACE_energy=-1.4783737504198295 pbc="T T T"
O        0.00000000       0.00000000       0.00000000      -2.96732168      -6.48071788      -0.00000000
H        0.95883000       0.00000000       0.00000000       0.82796599      -1.61995030      -0.00000000
H        0.40000000       0.78856000       0.00000000       2.13935569       8.10066818      -0.00000000
3
Lattice="15.0 0.0 0.0 0.0 15.0 0.0 0.0 0.0 15.0" Properties=species:S:1:pos:R:3:MACE_forces:R:3 energy=-2.2270785266 MACE_energy=-1.5873742519625054 pbc="T T T"
O        0.00000000       0.00000000       0.00000000      -3.23805726      -2.04040843      -0.00000000
H        0.95883000       0.00000000       0.00000000       1.63163830       0.86573646      -0.00000000
H        0.41667000       0.82142000       0.00000000       1.60641896       1.17467197      -0.00000000
3
Lattice="15.0 0.0 0.0 0.0 15.0 0.0 0.0 0.0 15.0" Properties=species:S:1:pos:R:3:MACE_forces:R:3 energy=-1.8701856234 MACE_energy=-1.645576972550465 pbc="T T T"
O        0.00000000       0.00000000       0.00000000      -4.10845986      -2.50349104      -0.00000000
H        0.95883000       0.00000000       0.00000000       1.82405924       1.64920485      -0.00000000
H        0.43333000       0.85427000       0.00000000       2.28440062       0.85428619      -0.00000000
3
Lattice="15.0 0.0 0.0 0.0 15.0 0.0 0.0 0.0 15.0" Properties=species:S:1:pos:R:3:MACE_forces:R:3 energy=-1.5170023585 MACE_energy=-1.7372016855714305 pbc="T T T"
O        0.00000000       0.00000000       0.00000000      -5.31656099      -4.49840556      -0.00000000
H        0.95883000       0.00000000       0.00000000       1.38347445       2.87891156      -0.00000000
H        0.45000000       0.88713000       0.00000000       3.93308655       1.61949400      -0.00000000
3
Lattice="15.0 0.0 0.0 0.0 15.0 0.0 0.0 0.0 15.0" Properties=species:S:1:pos:R:3:MACE_forces:R:3 energy=-1.1782446485 MACE_energy=-1.8712992907755235 pbc="T T T"
O        0.00000000       0.00000000       0.00000000      -6.15354265      -6.57199414      -0.00000000
H        0.95883000       0.00000000       0.00000000      -0.18459752       5.61620830      -0.00000000
H        0.46667000       0.91999000       0.00000000       6.33814017       0.95578584      -0.00000000
3
Lattice="15.0 0.0 0.0 0.0 15.0 0.0 0.0 0.0 15.0" Properties=species:S:1:pos:R:3:MACE_forces:R:3 energy=-0.8616962056 MACE_energy=-1.978308992836644 pbc="T T T"
O        0.00000000       0.00000000       0.00000000      -5.58888467      -7.46986933      -0.00000000
H        0.95883000       0.00000000       0.00000000      -3.27250609      10.16419689      -0.00000000
H        0.48333000       0.95284000       0.00000000       8.86139075      -2.69432755      -0.00000000
3
Lattice="15.0 0.0 0.0 0.0 15.0 0.0 0.0 0.0 15.0" Properties=species:S:1:pos:R:3:MACE_forces:R:3 energy=-0.5729860896 MACE_energy=-1.95873053638125 pbc="T T T"
O        0.00000000       0.00000000       0.00000000      -3.17435821      -7.00909346      -0.00000000
H        0.95883000       0.00000000       0.00000000      -7.82989666      16.00232613      -0.00000000
H        0.50000000       0.98570000       0.00000000      11.00425487      -8.99323267      -0.00000000
3
Lattice="15.0 0.0 0.0 0.0 15.0 0.0 0.0 0.0 15.0" Properties=species:S:1:pos:R:3:MACE_forces:R:3 energy=-0.3164799701 MACE_energy=-1.7211423001175337 pbc="T T T"
O        0.00000000       0.00000000       0.00000000       1.69139393      -3.16827770      -0.00000000
H        0.95883000       0.00000000       0.00000000     -11.95576026      19.94282371      -0.00000000
H        0.51667000       1.01856000       0.00000000      10.26436633     -16.77454601      -0.00000000
3
Lattice="15.0 0.0 0.0 0.0 15.0 0.0 0.0 0.0 15.0" Properties=species:S:1:pos:R:3:MACE_forces:R:3 energy=-0.095091135 MACE_energy=-1.2058174726051976 pbc="T T T"
O        0.00000000       0.00000000       0.00000000       7.27502287       3.92399698      -0.00000000
H        0.95883000       0.00000000       0.00000000     -12.23754094      17.18090731      -0.00000000
H        0.53333000       1.05142000       0.00000000       4.96251807     -21.10490429      -0.00000000
3
Lattice="15.0 0.0 0.0 0.0 15.0 0.0 0.0 0.0 15.0" Properties=species:S:1:pos:R:3:MACE_forces:R:3 energy=0.0888796351 MACE_energy=-0.6307941692448753 pbc="T T T"
O        0.00000000       0.00000000       0.00000000       7.38751770       5.46121652      -0.00000000
H        0.95883000       0.00000000       0.00000000      -7.75805579       8.32970286      -0.00000000
H        0.55000000       1.08427000       0.00000000       0.37053809     -13.79091938      -0.00000000
3
Lattice="15.0 0.0 0.0 0.0 15.0 0.0 0.0 0.0 15.0" Properties=species:S:1:pos:R:3:MACE_forces:R:3 energy=0.2339817832 MACE_energy=-0.49059354912230774 pbc="T T T"
O        0.00000000       0.00000000       0.00000000       1.00898722      -5.41322926      -0.00000000
H        0.95883000       0.00000000       0.00000000      -4.11528230       1.02667482      -0.00000000
H        0.56667000       1.11713000       0.00000000       3.10629508       4.38655444      -0.00000000
3
Lattice="15.0 0.0 0.0 0.0 15.0 0.0 0.0 0.0 15.0" Properties=species:S:1:pos:R:3:MACE_forces:R:3 energy=0.3391669192 MACE_energy=-1.0242670086281003 pbc="T T T"
O        0.00000000       0.00000000       0.00000000      -5.67203085     -19.45862952      -0.00000000
H        0.95883000       0.00000000       0.00000000      -3.92347636      -0.84197333      -0.00000000
H        0.58333000       1.14998000       0.00000000       9.59550720      20.30060285      -0.00000000
3
Lattice="15.0 0.0 0.0 0.0 15.0 0.0 0.0 0.0 15.0" Properties=species:S:1:pos:R:3:MACE_forces:R:3 energy=0.4037012997 MACE_energy=-1.818173285544696 pbc="T T T"
O        0.00000000       0.00000000       0.00000000      -2.08386939     -12.87962046      -0.00000000
H        0.95883000       0.00000000       0.00000000      -4.24272124      -0.68100369      -0.00000000
H        0.60000000       1.18285000       0.00000000       6.32659062      13.56062415      -0.00000000
3
Lattice="15.0 0.0 0.0 0.0 15.0 0.0 0.0 0.0 15.0" Properties=species:S:1:pos:R:3:MACE_forces:R:3 energy=0.4269268844 MACE_energy=-1.9983496743730382 pbc="T T T"
O        0.00000000       0.00000000       0.00000000       6.54981465       4.23889817      -0.00000000
H        0.95883000       0.00000000       0.00000000      -4.06004482      -1.20648771      -0.00000000
H        0.61667000       1.21570000       0.00000000      -2.48976982      -3.03241046      -0.00000000
3
Lattice="15.0 0.0 0.0 0.0 15.0 0.0 0.0 0.0 15.0" Properties=species:S:1:pos:R:3:MACE_forces:R:3 energy=0.408601025 MACE_energy=-1.6423924105277834 pbc="T T T"
O        0.00000000       0.00000000       0.00000000       9.67864265      12.85503114      -0.00000000
H        0.95883000       0.00000000       0.00000000      -3.02339974      -0.51590370      -0.00000000
H        0.63333000       1.24855000       0.00000000      -6.65524290     -12.33912744      -0.00000000
3
Lattice="15.0 0.0 0.0 0.0 15.0 0.0 0.0 0.0 15.0" Properties=species:S:1:pos:R:3:MACE_forces:R:3 energy=-2.3435422808 MACE_energy=2.015015458745473 pbc="T T T"
O        0.00000000       0.00000000       0.00000000       1.89029225     -18.50038970      -0.00000000
H        0.95883000       0.00000000       0.00000000     -16.00622071       5.64268777      -0.00000000
H        0.28240000       0.64051000       0.00000000      14.11592847      12.85770192      -0.00000000
3
Lattice="15.0 0.0 0.0 0.0 15.0 0.0 0.0 0.0 15.0" Properties=species:S:1:pos:R:3:MACE_forces:R:3 energy=-2.5451108628 MACE_energy=1.280017631617689 pbc="T T T"
O        0.00000000       0.00000000       0.00000000      -4.30272898     -25.04837646      -0.00000000
H        0.95883000       0.00000000       0.00000000     -15.70226119       9.13210222      -0.00000000
H        0.29727000       0.67421000       0.00000000      20.00499017      15.91627424      -0.00000000
3
Lattice="15.0 0.0 0.0 0.0 15.0 0.0 0.0 0.0 15.0" Properties=species:S:1:pos:R:3:MACE_forces:R:3 energy=-2.5556535125 MACE_energy=0.36247738031688764 pbc="T T T"
O        0.00000000       0.00000000       0.00000000      -8.38800684     -26.63340460      -0.00000000
H        0.95883000       0.00000000       0.00000000      -8.26870545       5.37890085      -0.00000000
H        0.31213000       0.70792000       0.00000000      16.65671228      21.25450375      -0.00000000
3
Lattice="15.0 0.0 0.0 0.0 15.0 0.0 0.0 0.0 15.0" Properties=species:S:1:pos:R:3:MACE_forces:R:3 energy=-2.4336753613 MACE_energy=-0.5881371316630517 pbc="T T T"
O        0.00000000       0.00000000       0.00000000      -8.45499680     -23.28674779      -0.00000000
H        0.95883000       0.00000000       0.00000000      -3.49180375       1.97119262      -0.00000000
H        0.32700000       0.74164000       0.00000000      11.94680055      21.31555516      -0.00000000
3
Lattice="15.0 0.0 0.0 0.0 15.0 0.0 0.0 0.0 15.0" Properties=species:S:1:pos:R:3:MACE_forces:R:3 energy=-2.2232971967 MACE_energy=-1.1998748743451597 pbc="T T T"
O        0.00000000       0.00000000       0.00000000      -3.75832951      -8.05922496      -0.00000000
H        0.95883000       0.00000000       0.00000000       0.36929629      -0.20655744      -0.00000000
H        0.34186000       0.77535000       0.00000000       3.38903321       8.26578240      -0.00000000
3
Lattice="15.0 0.0 0.0 0.0 15.0 0.0 0.0 0.0 15.0" Properties=species:S:1:pos:R:3:MACE_forces:R:3 energy=-1.9579085508 MACE_energy=-1.4825901734042015 pbc="T T T"
O        0.00000000       0.00000000       0.00000000      -4.50185421      -4.59236241      -0.00000000
H        0.95883000       0.00000000       0.00000000       1.37739028       1.47762248      -0.00000000
H        0.35672000       0.80906000       0.00000000       3.12446393       3.11473994      -0.00000000
3
Lattice="15.0 0.0 0.0 0.0 15.0 0.0 0.0 0.0 15.0" Properties=species:S:1:pos:R:3:MACE_forces:R:3 energy=-1.6625658148 MACE_energy=-1.4449346175233646 pbc="T T T"
O        0.00000000       0.00000000       0.00000000      -5.19984789      -2.33532915      -0.00000000
H        0.95883000       0.00000000       0.00000000       1.33605391       4.06731043      -0.00000000
H        0.37158000       0.84277000       0.00000000       3.86379398      -1.73198128      -0.00000000
3
Lattice="15.0 0.0 0.0 0.0 15.0 0.0 0.0 0.0 15.0" Properties=species:S:1:pos:R:3:MACE_forces:R:3 energy=-1.3563148175 MACE_energy=-1.4586243475556426 pbc="T T T"
O        0.00000000       0.00000000       0.00000000      -5.27762676      -3.41590958      -0.00000000
H        0.95883000       0.00000000       0.00000000       0.52904067       4.96516734      -0.00000000
H        0.38645000       0.87648000       0.00000000       4.74858610      -1.54925776      -0.00000000
3
Lattice="15.0 0.0 0.0 0.0 15.0 0.0 0.0 0.0 15.0" Properties=species:S:1:pos:R:3:MACE_forces:R:3 energy=-1.05315054 MACE_energy=-1.4635753778877392 pbc="T T T"
O        0.00000000       0.00000000       0.00000000      -4.42998907      -4.13306435      -0.00000000
H        0.95883000       0.00000000       0.00000000      -1.87923519       7.32532621      -0.00000000
H        0.40131000       0.91020000       0.00000000       6.30922426      -3.19226186      -0.00000000
3
Lattice="15.0 0.0 0.0 0.0 15.0 0.0 0.0 0.0 15.0" Properties=species:S:1:pos:R:3:MACE_forces:R:3 energy=-0.7640235536 MACE_energy=-1.4205612351928625 pbc="T T T"
O        0.00000000       0.00000000       0.00000000      -3.16873700      -5.02631724      -0.00000000
H        0.95883000       0.00000000       0.00000000      -5.46678388      11.16597336      -0.00000000
H        0.41618000       0.94390000       0.00000000       8.63552087      -6.13965612      -0.00000000
3
Lattice="15.0 0.0 0.0 0.0 15.0 0.0 0.0 0.0 15.0" Properties=species:S:1:pos:R:3:MACE_forces:R:3 energy=-0.4965519591 MACE_energy=-1.2967643629851462 pbc="T T T"
O        0.00000000       0.00000000       0.00000000      -0.90765846      -4.99955047      -0.00000000
H        0.95883000       0.00000000       0.00000000      -9.07075190      14.39964288      -0.00000000
H        0.43104000       0.97761000       0.00000000       9.97841036      -9.40009241      -0.00000000
3
Lattice="15.0 0.0 0.0 0.0 15.0 0.0 0.0 0.0 15.0" Properties=species:S:1:pos:R:3:MACE_forces:R:3 energy=-0.2567416275 MACE_energy=-1.0989357707359435 pbc="T T T"
O        0.00000000       0.00000000       0.00000000       1.92866476      -4.10688195      -0.00000000
H        0.95883000       0.00000000       0.00000000     -11.11807399      14.54813460      -0.00000000
H        0.44590000       1.01132000       0.00000000       9.18940923     -10.44125265      -0.00000000
3
Lattice="15.0 0.0 0.0 0.0 15.0 0.0 0.0 0.0 15.0" Properties=species:S:1:pos:R:3:MACE_forces:R:3 energy=-0.0488576473 MACE_energy=-0.8781564370966335 pbc="T T T"
O        0.00000000       0.00000000       0.00000000       4.67496516      -1.56543096      -0.00000000
H        0.95883000       0.00000000       0.00000000     -10.58775623      10.95811660      -0.00000000
H        0.46077000       1.04504000       0.00000000       5.91279107      -9.39268564      -0.00000000
3
Lattice="15.0 0.0 0.0 0.0 15.0 0.0 0.0 0.0 15.0" Properties=species:S:1:pos:R:3:MACE_forces:R:3 energy=0.1236923751 MACE_energy=-0.6337332816730872 pbc="T T T"
O        0.00000000       0.00000000       0.00000000       6.56030430       2.61456369      -0.00000000
H        0.95883000       0.00000000       0.00000000      -7.86892727       5.49511993      -0.00000000
H        0.47563000       1.07875000       0.00000000       1.30862296      -8.10968362      -0.00000000
3
Lattice="15.0 0.0 0.0 0.0 15.0 0.0 0.0 0.0 15.0" Properties=species:S:1:pos:R:3:MACE_forces:R:3 energy=0.2586438761 MACE_energy=-0.41974646954989697 pbc="T T T"
O        0.00000000       0.00000000       0.00000000       4.87902175       2.13805076      -0.00000000
H        0.95883000       0.00000000       0.00000000      -4.56902635       1.50282922      -0.00000000
H        0.49049000       1.11246000       0.00000000      -0.30999540      -3.64087999      -0.00000000
3
Lattice="15.0 0.0 0.0 0.0 15.0 0.0 0.0 0.0 15.0" Properties=species:S:1:pos:R:3:MACE_forces:R:3 energy=0.3542500427 MACE_energy=-0.4846025239014108 pbc="T T T"
O        0.00000000       0.00000000       0.00000000      -0.06445100      -7.27462035      -0.00000000
H        0.95883000       0.00000000       0.00000000      -3.12251811      -0.05164727      -0.00000000
H        0.50535000       1.14617000       0.00000000       3.18696911       7.32626763      -0.00000000
3
Lattice="15.0 0.0 0.0 0.0 15.0 0.0 0.0 0.0 15.0" Properties=species:S:1:pos:R:3:MACE_forces:R:3 energy=0.4090952845 MACE_energy=-1.0620169418643375 pbc="T T T"
O        0.00000000       0.00000000       0.00000000      -5.17359008     -20.33840201      -0.00000000
H        0.95883000       0.00000000       0.00000000      -3.47047888      -0.86974627      -0.00000000
H        0.52022000       1.17988000       0.00000000       8.64406896      21.20814828      -0.00000000
3
Lattice="15.0 0.0 0.0 0.0 15.0 0.0 0.0 0.0 15.0" Properties=species:S:1:pos:R:3:MACE_forces:R:3 energy=0.4222167123 MACE_energy=-1.8844504472794823 pbc="T T T"
O        0.00000000       0.00000000       0.00000000      -1.70769024     -13.34744097      -0.00000000
H        0.95883000       0.00000000       0.00000000      -3.47733607      -2.00460799      -0.00000000
H        0.53508000       1.21359000       0.00000000       5.18502631      15.35204896      -0.00000000
3
Lattice="15.0 0.0 0.0 0.0 15.0 0.0 0.0 0.0 15.0" Properties=species:S:1:pos:R:3:MACE_forces:R:3 energy=0.3927280759 MACE_energy=-2.0844517665762186 pbc="T T T"
O        0.00000000       0.00000000       0.00000000       6.40334529       5.56136813      -0.00000000
H        0.95883000       0.00000000       0.00000000      -3.36045904      -1.80228335      -0.00000000
H        0.54995000       1.24730000       0.00000000      -3.04288625      -3.75908478      -0.00000000
3
Lattice="15.0 0.0 0.0 0.0 15.0 0.0 0.0 0.0 15.0" Properties=species:S:1:pos:R:3:MACE_forces:R:3 energy=0.3197696355 MACE_energy=-1.6382993259083365 pbc="T T T"
O        0.00000000       0.00000000       0.00000000       9.82567769      15.61788016      -0.00000000
H        0.95883000       0.00000000       0.00000000      -3.05132507       0.36323395      -0.00000000
H        0.56481000       1.28101000       0.00000000      -6.77435262     -15.98111411      -0.00000000
3
Lattice="15.0 0.0 0.0 0.0 15.0 0.0 0.0 0.0 15.0" Properties=species:S:1:pos:R:3:MACE_forces:R:3 energy=-1.6067419331 MACE_energy=0.8899119587537434 pbc="T T T"
O        0.00000000       0.00000000       0.00000000      16.65640857      68.28520418      -0.00000000
H        0.95883000       0.00000000       0.00000000      90.22947566     -74.63975194      -0.00000000
H        0.24731000       0.65486000       0.00000000    -106.88588423       6.35454777      -0.00000000
3
Lattice="15.0 0.0 0.0 0.0 15.0 0.0 0.0 0.0 15.0" Properties=species:S:1:pos:R:3:MACE_forces:R:3 energy=-1.8584083177 MACE_energy=1.1726901954201694 pbc="T T T"
O        0.00000000       0.00000000       0.00000000       3.80985787       2.39449217      -0.00000000
H        0.95883000       0.00000000       0.00000000      12.27524408     -14.98128036      -0.00000000
H        0.26033000       0.68932000       0.00000000     -16.08510195      12.58678819      -0.00000000
3
Lattice="15.0 0.0 0.0 0.0 15.0 0.0 0.0 0.0 15.0" Properties=species:S:1:pos:R:3:MACE_forces:R:3 energy=-1.9190381232 MACE_energy=0.4664537333188457 pbc="T T T"
O        0.00000000       0.00000000       0.00000000      -7.64694367     -27.10649296      -0.00000000
H        0.95883000       0.00000000       0.00000000      -1.62830631      -1.01581290      -0.00000000