3
Lattice="15.0 0.0 0.0 0.0 15.0 0.0 0.0 0.0 15.0" Properties=species:S:1:pos:R:3:MACE_forces:R:3 energy=-0.8456899017 MACE_energy=0.7645163364077421 pbc="T T T"
O        0.00000000       0.00000000       0.00000000       8.14919435      11.26500502      -0.00000000
H        0.95883000       0.00000000       0.00000000      -1.65185495       0.00646267      -0.00000000
H        0.35000000       0.60622000       0.00000000      -6.49733940     -11.27146769      -0.00000000
3
Lattice="15.0 0.0 0.0 0.0 15.0 0.0 0.0 0.0 15.0" Properties=species:S:1:pos:R:3:MACE_forces:R:3 energy=-1.515388557 MACE_energy=0.741918533976857 pbc="T T T"
O        0.00000000       0.00000000       0.00000000      -4.27289103      -6.41189407      -0.00000000
H        0.95883000       0.00000000       0.00000000      -0.10107817       0.72635493      -0.00000000
H        0.36842000       0.63812000       0.00000000       4.37396920       5.68553914      -0.00000000
3
Lattice="15.0 0.0 0.0 0.0 15.0 0.0 0.0 0.0 15.0" Properties=species:S:1:pos:R:3:MACE_forces:R:3 energy=-1.911065593 MACE_energy=0.2606394524304749 pbc="T T T"
O        0.00000000       0.00000000       0.00000000     -10.32911077     -14.73584659      -0.00000000
H        0.95883000       0.00000000       0.00000000       0.79119529       1.20679490      -0.00000000
H        0.38684000       0.67003000       0.00000000       9.53791548      13.52905169      -0.00000000
3
Lattice="15.0 0.0 0.0 0.0 15.0 0.0 0.0 0.0 15.0" Properties=species:S:1:pos:R:3:MACE_forces:R:3 energy=-2.1009423662 MACE_energy=-0.23258942746559116 pbc="T T T"
O        0.00000000       0.00000000       0.00000000      -7.70456112      -8.30685453      -0.00000000
H        0.95883000       0.00000000       0.00000000       2.18155666       0.92184915      -0.00000000
H        0.40527000       0.70194000       0.00000000       5.52300446       7.38500538      -0.00000000
3
Lattice="15.0 0.0 0.0 0.0 15.0 0.0 0.0 0.0 15.0" Properties=species:S:1:pos:R:3:MACE_forces:R:3 energy=-2.137760804 MACE_energy=-0.47295727138443205 pbc="T T T"
O        0.00000000       0.00000000       0.00000000      -5.35159467      -4.48408758      -0.00000000
H        0.95883000       0.00000000       0.00000000       2.70735979       0.07583484      -0.00000000
H        0.42369000       0.73384000       0.00000000       2.64423488       4.40825275      -0.00000000
3
Lattice="15.0 0.0 0.0 0.0 15.0 0.0 0.0 0.0 15.0" Properties=species:S:1:pos:R:3:MACE_forces:R:3 energy=-2.0627710869 MACE_energy=-0.6523863708325823 pbc="T T T"
O        0.00000000       0.00000000       0.00000000      -3.93682687      -3.61239455      -0.00000000
H        0.95883000       0.00000000       0.00000000       2.26094619      -0.60723433      -0.00000000
H        0.44211000       0.76575000       0.00000000       1.67588068       4.21962888      -0.00000000
3
Lattice="15.0 0.0 0.0 0.0 15.0 0.0 0.0 0.0 15.0" Properties=species:S:1:pos:R:3:MACE_forces:R:3 energy=-1.9083087263 MACE_energy=-0.7812073050639992 pbc="T T T"
O        0.00000000       0.00000000       0.00000000      -1.46605874      -1.48536700      -0.00000000
H        0.95883000       0.00000000       0.00000000       1.25713905      -1.03835295      -0.00000000
H        0.46053000       0.79765000       0.00000000       0.20891969       2.52371995      -0.00000000
3
Lattice="15.0 0.0 0.0 0.0 15.0 0.0 0.0 0.0 15.0" Properties=species:S:1:pos:R:3:MACE_forces:R:3 energy=-1.6994828715 MACE_energy=-0.8246222500373899 pbc="T T T"
O        0.00000000       0.00000000       0.00000000       0.66575741       0.37813223      -0.00000000
H        0.95883000       0.00000000       0.00000000       0.30477742      -1.30034683      -0.00000000
H        0.47895000       0.82956000       0.00000000      -0.97053483       0.92221460      -0.00000000
3
Lattice="15.0 0.0 0.0 0.0 15.0 0.0 0.0 0.0 15.0" Properties=species:S:1:pos:R:3:MACE_forces:R:3 energy=-1.4562675938 MACE_energy=-0.8252098721694252 pbc="T T T"
O        0.00000000       0.00000000       0.00000000       1.50827818       0.76570587      -0.00000000
H        0.95883000       0.00000000       0.00000000      -0.31428820      -1.40369136      -0.00000000
H        0.49737000       0.86147000       0.00000000      -1.19398998       0.63798549      -0.00000000
3
Lattice="15.0 0.0 0.0 0.0 15.0 0.0 0.0 0.0 15.0" Properties=species:S:1:pos:R:3:MACE_forces:R:3 energy=-1.1944922873 MACE_energy=-0.8317973576792872 pbc="T T T"
O        0.00000000       0.00000000       0.00000000       1.49038214       0.28627388      -0.00000000
H        0.95883000       0.00000000       0.00000000      -0.69645564      -1.26763479      -0.00000000
H        0.51579000       0.89337000       0.00000000      -0.79392650       0.98136091      -0.00000000
3
Lattice="15.0 0.0 0.0 0.0 15.0 0.0 0.0 0.0 15.0" Properties=species:S:1:pos:R:3:MACE_forces:R:3 energy=-0.926446835 MACE_energy=-0.857612588048672 pbc="T T T"
O        0.00000000       0.00000000       0.00000000       1.17912855      -0.33520515      -0.00000000
H        0.95883000       0.00000000       0.00000000      -1.00761514      -0.79545916      -0.00000000
H        0.53421000       0.92528000       0.00000000      -0.17151341       1.13066431      -0.00000000
3
Lattice="15.0 0.0 0.0 0.0 15.0 0.0 0.0 0.0 15.0" Properties=species:S:1:pos:R:3:MACE_forces:R:3 energy=-0.6622920278 MACE_energy=-0.8928662384491506 pbc="T T T"
O        0.00000000       0.00000000       0.00000000       0.80873364      -0.86232245      -0.00000000
H        0.95883000       0.00000000       0.00000000      -1.32603252       0.04579736      -0.00000000
H        0.55263000       0.95718000       0.00000000       0.51729889       0.81652509      -0.00000000
3
Lattice="15.0 0.0 0.0 0.0 15.0 0.0 0.0 0.0 15.0" Properties=species:S:1:pos:R:3:MACE_forces:R:3 energy=-0.4097572 MACE_energy=-0.9273549045061689 pbc="T T T"
O        0.00000000       0.00000000       0.00000000       0.32001330      -1.48376444      -0.00000000
H        0.95883000       0.00000000       0.00000000      -1.63212607       1.16175110      -0.00000000
H        0.57106000       0.98910000       0.00000000       1.31211277       0.32201334      -0.00000000
3
Lattice="15.0 0.0 0.0 0.0 15.0 0.0 0.0 0.0 15.0" Properties=species:S:1:pos:R:3:MACE_forces:R:3 energy=-0.1755924046 MACE_energy=-0.9680723335798367 pbc="T T T"
O        0.00000000       0.00000000       0.00000000      -0.47004453      -2.60291846      -0.00000000
H        0.95883000       0.00000000       0.00000000      -1.87441917       2.32659825      -0.00000000
H        0.58948000       1.02100000       0.00000000       2.34446370       0.27632021      -0.00000000
3
Lattice="15.0 0.0 0.0 0.0 15.0 0.0 0.0 0.0 15.0" Properties=species:S:1:pos:R:3:MACE_forces:R:3 energy=0.0352507575 MACE_energy=-1.043243331858582 pbc="T T T"
O        0.00000000       0.00000000       0.00000000      -1.59919951      -4.43840451      -0.00000000
H        0.95883000       0.00000000       0.00000000      -2.05604224       3.27852988      -0.00000000
H        0.60790000       1.05291000       0.00000000       3.65524175       1.15987462      -0.00000000
3
Lattice="15.0 0.0 0.0 0.0 15.0 0.0 0.0 0.0 15.0" Properties=species:S:1:pos:R:3:MACE_forces:R:3 energy=0.2184289109 MACE_energy=-1.1861962628506426 pbc="T T T"
O        0.00000000       0.00000000       0.00000000      -2.79879878      -6.67102916      -0.00000000
H        0.95883000       0.00000000       0.00000000      -2.21427209       3.78945123      -0.00000000
H        0.62632000       1.08481000       0.00000000       5.01307087       2.88157793      -0.00000000
3
Lattice="15.0 0.0 0.0 0.0 15.0 0.0 0.0 0.0 15.0" Properties=species:S:1:pos:R:3:MACE_forces:R:3 energy=0.3706198412 MACE_energy=-1.4110206525593378 pbc="T T T"
O        0.00000000       0.00000000       0.00000000      -3.61424348      -8.45786140      -0.00000000
H        0.95883000       0.00000000       0.00000000      -2.30439562       3.68137132      -0.00000000
H        0.64474000       1.11671000       0.00000000       5.91863910       4.77649008      -0.00000000
3
Lattice="15.0 0.0 0.0 0.0 15.0 0.0 0.0 0.0 15.0" Properties=species:S:1:pos:R:3:MACE_forces:R:3 energy=0.4891377246 MACE_energy=-1.6933420527839915 pbc="T T T"
O        0.00000000       0.00000000       0.00000000      -3.59935108      -8.72383784      -0.00000000
H        0.95883000       0.00000000       0.00000000      -2.18884795       2.91946681      -0.00000000
H        0.66316000       1.14863000       0.00000000       5.78819903       5.80437103      -0.00000000
3
Lattice="15.0 0.0 0.0 0.0 15.0 0.0 0.0 0.0 15.0" Properties=species:S:1:pos:R:3:MACE_forces:R:3 energy=0.5715779897 MACE_energy=-1.969357223626183 pbc="T T T"
O        0.00000000       0.00000000       0.00000000      -2.60989443      -6.96192325      -0.00000000
H        0.95883000       0.00000000       0.00000000      -1.81978263       1.74665109      -0.00000000
H        0.68158000       1.18053000       0.00000000       4.42967706       5.21527215      -0.00000000
3
Lattice="15.0 0.0 0.0 0.0 15.0 0.0 0.0 0.0 15.0" Properties=species:S:1:pos:R:3:MACE_forces:R:3 energy=0.616232297 MACE_energy=-2.1699303960243763 pbc="T T T"
O        0.00000000       0.00000000       0.00000000      -0.97441095      -3.87582808      -0.00000000
H        0.95883000       0.00000000       0.00000000      -1.40126836       0.64632759      -0.00000000
H        0.70000000       1.21244000       0.00000000       2.37567931       3.22950049      -0.00000000
3
Lattice="15.0 0.0 0.0 0.0 15.0 0.0 0.0 0.0 15.0" Properties=species:S:1:pos:R:3:MACE_forces:R:3 energy=-0.4432388256 MACE_energy=0.7572279342565684 pbc="T T T"
O        0.00000000       0.00000000       0.00000000       8.48485164      13.79150695      -0.00000000
H        0.95883000       0.00000000       0.00000000      -1.26971809      -0.21319775      -0.00000000
H        0.31667000       0.62428000       0.00000000      -7.21513355     -13.57830920      -0.00000000
3
Lattice="15.0 0.0 0.0 0.0 15.0 0.0 0.0 0.0 15.0" Properties=species:S:1:pos:R:3:MACE_forces:R:3 energy=-1.1057787971 MACE_energy=0.7566591801131679 pbc="T T T"
O        0.00000000       0.00000000       0.00000000      -3.57636944      -6.15052136      -0.00000000
H        0.95883000       0.00000000       0.00000000       0.51938107      -0.06605039      -0.00000000
H        0.33333000       0.65713000       0.00000000       3.05698837       6.21657175      -0.00000000
3
Lattice="15.0 0.0 0.0 0.0 15.0 0.0 0.0 0.0 15.0" Properties=species:S:1:pos:R:3:MACE_forces:R:3 energy=-1.4967260079 MACE_energy=0.2890580020944923 pbc="T T T"
O        0.00000000       0.00000000       0.00000000      -8.81271802     -14.50955675      -0.00000000
H        0.95883000       0.00000000       0.00000000       1.41929304       0.03785037      -0.00000000
H        0.35000000       0.68999000       0.00000000       7.39342498      14.47170638      -0.00000000
3
Lattice="15.0 0.0 0.0 0.0 15.0 0.0 0.0 0.0 15.0" Properties=species:S:1:pos:R:3:MACE_forces:R:3 energy=-1.6841404974 MACE_energy=-0.21850175542874362 pbc="T T T"
O        0.00000000       0.00000000       0.00000000      -6.92384503      -8.88292046      -0.00000000
H        0.95883000       0.00000000       0.00000000       2.58557661      -0.20464589      -0.00000000
H        0.36667000       0.72285000       0.00000000       4.33826843       9.08756635      -0.00000000
3
Lattice="15.0 0.0 0.0 0.0 15.0 0.0 0.0 0.0 15.0" Properties=species:S:1:pos:R:3:MACE_forces:R:3 energy=-1.7210277301 MACE_energy=-0.49516720043644363 pbc="T T T"
O        0.00000000       0.00000000       0.00000000      -4.91276538      -5.02589416      -0.00000000
H        0.95883000       0.00000000       0.00000000       2.92042921      -0.73144682      -0.00000000
H        0.38333000       0.75571000       0.00000000       1.99233616       5.75734098      -0.00000000
3
Lattice="15.0 0.0 0.0 0.0 15.0 0.0 0.0 0.0 15.0" Properties=species:S:1:pos:R:3:MACE_forces:R:3 energy=-1.6490013029 MACE_energy=-0.6996117141906282 pbc="T T T"
O        0.00000000       0.00000000       0.00000000      -3.63198242      -3.91099920      -0.00000000
H        0.95883000       0.00000000       0.00000000       2.35283569      -0.99442717      -0.00000000
H        0.40000000       0.78856000       0.00000000       1.27914673       4.90542637      -0.00000000
3
Lattice="15.0 0.0 0.0 0.0 15.0 0.0 0.0 0.0 15.0" Properties=species:S:1:pos:R:3:MACE_forces:R:3 energy=-1.5002599286 MACE_energy=-0.8387338006583394 pbc="T T T"
O        0.00000000       0.00000000       0.00000000      -1.46891803      -1.64834334      -0.00000000
H        0.95883000       0.00000000       0.00000000       1.25829468      -0.94769992      -0.00000000
H        0.41667000       0.82142000       0.00000000       0.21062335       2.59604326      -0.00000000
3
Lattice="15.0 0.0 0.0 0.0 15.0 0.0 0.0 0.0 15.0" Properties=species:S:1:pos:R:3:MACE_forces:R:3 energy=-1.3003585258 MACE_energy=-0.8817823484002565 pbc="T T T"
O        0.00000000       0.00000000       0.00000000       0.35663510       0.21163055      -0.00000000
H        0.95883000       0.00000000       0.00000000       0.16157107      -0.66790127      -0.00000000
H        0.43333000       0.85427000       0.00000000      -0.51820617       0.45627072      -0.00000000
3
Lattice="15.0 0.0 0.0 0.0 15.0 0.0 0.0 0.0 15.0" Properties=species:S:1:pos:R:3:MACE_forces:R:3 energy=-1.0692855291 MACE_energy=-0.8714162917935042 pbc="T T T"
O        0.00000000       0.00000000       0.00000000       1.05437044       0.54651757      -0.00000000
H        0.95883000       0.00000000       0.00000000      -0.68912546      -0.15346357      -0.00000000
H        0.45000000       0.88713000       0.00000000      -0.36524498      -0.39305401      -0.00000000
3
Lattice="15.0 0.0 0.0 0.0 15.0 0.0 0.0 0.0 15.0" Properties=species:S:1:pos:R:3:MACE_forces:R:3 energy=-0.8229661884 MACE_energy=-0.8530275306960071 pbc="T T T"
O        0.00000000       0.00000000       0.00000000       1.01866719       0.02985237      -0.00000000
H        0.95883000       0.00000000       0.00000000      -1.34036075       0.62964497      -0.00000000
H        0.46667000       0.91999000       0.00000000       0.32169356      -0.65949734      -0.00000000
3
Lattice="15.0 0.0 0.0 0.0 15.0 0.0 0.0 0.0 15.0" Properties=species:S:1:pos:R:3:MACE_forces:R:3 energy=-0.5741025646 MACE_energy=-0.8377936889921382 pbc="T T T"
O        0.00000000       0.00000000       0.00000000       0.74819173      -0.60000010      -0.00000000
H        0.95883000       0.00000000       0.00000000      -1.87596939       1.65003916      -0.00000000
H        0.48333000       0.95284000       0.00000000       1.12777766      -1.05003906      -0.00000000
3
Lattice="15.0 0.0 0.0 0.0 15.0 0.0 0.0 0.0 15.0" Properties=species:S:1:pos:R:3:MACE_forces:R:3 energy=-0.3326487003 MACE_energy=-0.8190024704731331 pbc="T T T"
O        0.00000000       0.00000000       0.00000000       0.43513254      -1.13755740      -0.00000000
H        0.95883000       0.00000000       0.00000000      -2.29591511       2.75787258      -0.00000000
H        0.50000000       0.98570000       0.00000000       1.86078257      -1.62031518      -0.00000000
3
Lattice="15.0 0.0 0.0 0.0 15.0 0.0 0.0 0.0 15.0" Properties=species:S:1:pos:R:3:MACE_forces:R:3 energy=-0.1067568775 MACE_energy=-0.7962353676000555 pbc="T T T"
O        0.00000000       0.00000000       0.00000000       0.01523317      -1.81075440      -0.00000000
H        0.95883000       0.00000000       0.00000000      -2.53621680       3.69144794      -0.00000000
H        0.51667000       1.01856000       0.00000000       2.52098364      -1.88069354      -0.00000000
3
Lattice="15.0 0.0 0.0 0.0 15.0 0.0 0.0 0.0 15.0" Properties=species:S:1:pos:R:3:MACE_forces:R:3 energy=0.0970771101 MACE_energy=-0.7904894409009 pbc="T T T"
O        0.00000000       0.00000000       0.00000000      -0.65784181      -3.01231396      -0.00000000
H        0.95883000       0.00000000       0.00000000      -2.55983394       4.17525554      -0.00000000
H        0.53333000       1.05142000       0.00000000       3.21767575      -1.16294158      -0.00000000
3
Lattice="15.0 0.0 0.0 0.0 15.0 0.0 0.0 0.0 15.0" Properties=species:S:1:pos:R:3:MACE_forces:R:3 energy=0.2735413173 MACE_energy=-0.8421091213691325 pbc="T T T"
O        0.00000000       0.00000000       0.00000000      -1.59370253      -4.90480087      -0.00000000
H        0.95883000       0.00000000       0.00000000      -2.42285008       4.05397603      -0.00000000
H        0.55000000       1.08427000       0.00000000       4.01655261       0.85082485      -0.00000000
3
Lattice="15.0 0.0 0.0 0.0 15.0 0.0 0.0 0.0 15.0" Properties=species:S:1:pos:R:3:MACE_forces:R:3 energy=0.4185271494 MACE_energy=-0.9912117855664471 pbc="T T T"
O        0.00000000       0.00000000       0.00000000      -2.58695754      -7.17214734      -0.00000000
H        0.95883000       0.00000000       0.00000000      -2.22166014       3.33437967      -0.00000000
H        0.56667000       1.11713000       0.00000000       4.80861768       3.83776766      -0.00000000
3
Lattice="15.0 0.0 0.0 0.0 15.0 0.0 0.0 0.0 15.0" Properties=species:S:1:pos:R:3:MACE_forces:R:3 energy=0.5285236499 MACE_energy=-1.2530033296511294 pbc="T T T"
O        0.00000000       0.00000000       0.00000000      -3.27351112      -8.99149261      -0.00000000
H        0.95883000       0.00000000       0.00000000      -1.99384194       2.16336428      -0.00000000
H        0.58333000       1.14998000       0.00000000       5.26735306       6.82812833      -0.00000000
3
Lattice="15.0 0.0 0.0 0.0 15.0 0.0 0.0 0.0 15.0" Properties=species:S:1:pos:R:3:MACE_forces:R:3 energy=0.6008463472 MACE_energy=-1.5944335525937494 pbc="T T T"
O        0.00000000       0.00000000       0.00000000      -3.18655486      -9.20277221      -0.00000000
H        0.95883000       0.00000000       0.00000000      -1.75450686       0.89978967      -0.00000000
H        0.60000000       1.18285000       0.00000000       4.94106172       8.30298255      -0.00000000
3
Lattice="15.0 0.0 0.0 0.0 15.0 0.0 0.0 0.0 15.0" Properties=species:S:1:pos:R:3:MACE_forces:R:3 energy=0.633175435 MACE_energy=-1.928041761048671 pbc="T T T"
O        0.00000000       0.00000000       0.00000000      -2.05407606      -7.23634200      -0.00000000
H        0.95883000       0.00000000       0.00000000      -1.66130484       0.15885415      -0.00000000
H        0.61667000       1.21570000       0.00000000       3.71538090       7.07748785      -0.00000000
3
Lattice="15.0 0.0 0.0 0.0 15.0 0.0 0.0 0.0 15.0" Properties=species:S:1:pos:R:3:MACE_forces:R:3 energy=0.6237638499 MACE_energy=-2.1550318645789166 pbc="T T T"
O        0.00000000       0.00000000       0.00000000      -0.14358461      -3.93695619      -0.00000000
H        0.95883000       0.00000000       0.00000000      -1.96098329       0.41249089      -0.00000000
H        0.63333000       1.24855000       0.00000000       2.10456790       3.52446530      -0.00000000
3
Lattice="15.0 0.0 0.0 0.0 15.0 0.0 0.0 0.0 15.0" Properties=species:S:1:pos:R:3:MACE_forces:R:3 energy=-0.082301955 MACE_energy=0.7453963039551377 pbc="T T T"
O        0.00000000       0.00000000       0.00000000       7.17137852      14.07565106      -0.00000000
H        0.95883000       0.00000000       0.00000000      -0.71865134      -0.23368630      -0.00000000
H        0.28240000       0.64051000       0.00000000      -6.45272718     -13.84196476      -0.00000000
3
Lattice="15.0 0.0 0.0 0.0 15.0 0.0 0.0 0.0 15.0" Properties=species:S:1:pos:R:3:MACE_forces:R:3 energy=-0.7413310249 MACE_energy=0.742131621375083 pbc="T T T"
O        0.00000000       0.00000000       0.00000000      -3.16266633      -6.28636446      -0.00000000
H        0.95883000       0.00000000       0.00000000       0.82403235      -0.44140689      -0.00000000
H        0.29727000       0.67421000       0.00000000       2.33863398       6.72777135      -0.00000000
3
Lattice="15.0 0.0 0.0 0.0 15.0 0.0 0.0 0.0 15.0" Properties=species:S:1:pos:R:3:MACE_forces:R:3 energy=-1.1310302991 MACE_energy=0.27781877326774745 pbc="T T T"
O        0.00000000       0.00000000       0.00000000      -7.58373791     -14.54566271      -0.00000000
H        0.95883000       0.00000000       0.00000000       1.50840995      -0.37001938      -0.00000000
H        0.31213000       0.70792000       0.00000000       6.07532796      14.91568209      -0.00000000
3
Lattice="15.0 0.0 0.0 0.0 15.0 0.0 0.0 0.0 15.0" Properties=species:S:1:pos:R:3:MACE_forces:R:3 energy=-1.319971228 MACE_energy=-0.23708908376383228 pbc="T T T"
O        0.00000000       0.00000000       0.00000000      -6.21236924      -9.46273104      -0.00000000
H        0.95883000       0.00000000       0.00000000       2.35624237      -0.37107310      -0.00000000
H        0.32700000       0.74164000       0.00000000       3.85612687       9.83380414      -0.00000000
3
Lattice="15.0 0.0 0.0 0.0 15.0 0.0 0.0 0.0 15.0" Properties=species:S:1:pos:R:3:MACE_forces:R:3 energy=-1.3611356774 MACE_energy=-0.5301601872343857 pbc="T T T"
O        0.00000000       0.00000000       0.00000000      -4.51861665      -5.52970175      -0.00000000
H        0.95883000       0.00000000       0.00000000       2.44785763      -0.46164453      -0.00000000
H        0.34186000       0.77535000       0.00000000       2.07075903       5.99134628      -0.00000000
3
Lattice="15.0 0.0 0.0 0.0 15.0 0.0 0.0 0.0 15.0" Properties=species:S:1:pos:R:3:MACE_forces:R:3 energy=-1.2961730837 MACE_energy=-0.7357310820643692 pbc="T T T"
O        0.00000000       0.00000000       0.00000000      -3.39097512      -4.20086690      -0.00000000
H        0.95883000       0.00000000       0.00000000       1.71698473      -0.23944889      -0.00000000
H        0.35672000       0.80906000       0.00000000       1.67399039       4.44031579      -0.00000000
3
Lattice="15.0 0.0 0.0 0.0 15.0 0.0 0.0 0.0 15.0" Properties=species:S:1:pos:R:3:MACE_forces:R:3 energy=-1.1576162372 MACE_energy=-0.8595307022604399 pbc="T T T"
O        0.00000000       0.00000000       0.00000000      -1.51078925      -1.83292253      -0.00000000
H        0.95883000       0.00000000       0.00000000       0.49964671       0.29132949      -0.00000000
H        0.37158000       0.84277000       0.00000000       1.01114254       1.54159304      -0.00000000
3
Lattice="15.0 0.0 0.0 0.0 15.0 0.0 0.0 0.0 15.0" Properties=species:S:1:pos:R:3:MACE_forces:R:3 energy=-0.9710861696 MACE_energy=-0.8751810619070901 pbc="T T T"
O        0.00000000       0.00000000       0.00000000       0.08046565       0.04388382      -0.00000000
H        0.95883000       0.00000000       0.00000000      -0.73573541       1.03303704      -0.00000000
H        0.38645000       0.87648000       0.00000000       0.65526976      -1.07692085      -0.00000000
3
Lattice="15.0 0.0 0.0 0.0 15.0 0.0 0.0 0.0 15.0" Properties=species:S:1:pos:R:3:MACE_forces:R:3 energy=-0.7566417734 MACE_energy=-0.8263566534818911 pbc="T T T"
O        0.00000000       0.00000000       0.00000000       0.70898701       0.38015350      -0.00000000
H        0.95883000       0.00000000       0.00000000      -1.72514327       1.93260301      -0.00000000
H        0.40131000       0.91020000       0.00000000       1.01615626      -2.31275651      -0.00000000
3
Lattice="15.0 0.0 0.0 0.0 15.0 0.0 0.0 0.0 15.0" Properties=species:S:1:pos:R:3:MACE_forces:R:3 energy=-0.5305762602 MACE_energy=-0.7596267140987079 pbc="T T T"
O        0.00000000       0.00000000       0.00000000       0.71271565      -0.12160438      -0.00000000
H        0.95883000       0.00000000       0.00000000      -2.43918129       2.90979749      -0.00000000
H        0.41618000       0.94390000       0.00000000       1.72646564      -2.78819311      -0.00000000
3
Lattice="15.0 0.0 0.0 0.0 15.0 0.0 0.0 0.0 15.0" Properties=species:S:1:pos:R:3:MACE_forces:R:3 energy=-0.305360666 MACE_energy=-0.6914592949770924 pbc="T T T"
O        0.00000000       0.00000000       0.00000000       0.50927577      -0.74413661      -0.00000000
H        0.95883000       0.00000000       0.00000000      -2.88975175       3.80155833      -0.00000000
H        0.43104000       0.97761000       0.00000000       2.38047598      -3.05742172      -0.00000000
3
Lattice="15.0 0.0 0.0 0.0 15.0 0.0 0.0 0.0 15.0" Properties=species:S:1:pos:R:3:MACE_forces:R:3 energy=-0.091268797 MACE_energy=-0.6260391610336022 pbc="T T T"
O        0.00000000       0.00000000       0.00000000       0.24824186      -1.32324167      -0.00000000
H        0.95883000       0.00000000       0.00000000      -3.04800323       4.36983840      -0.00000000
H        0.44590000       1.01132000       0.00000000       2.79976137      -3.04659673      -0.00000000
3
Lattice="15.0 0.0 0.0 0.0 15.0 0.0 0.0 0.0 15.0" Properties=species:S:1:pos:R:3:MACE_forces:R:3 energy=0.1035949256 MACE_energy=-0.5766096511287137 pbc="T T T"
O        0.00000000       0.00000000       0.00000000      -0.12672827      -2.10059878      -0.00000000
H        0.95883000       0.00000000       0.00000000      -2.89429433       4.39544746      -0.00000000
H        0.46077000       1.04504000       0.00000000       3.02102260      -2.29484869      -0.00000000
3
Lattice="15.0 0.0 0.0 0.0 15.0 0.0 0.0 0.0 15.0" Properties=species:S:1:pos:R:3:MACE_forces:R:3 energy=0.2725645037 MACE_energy=-0.5740585893704762 pbc="T T T"
O        0.00000000       0.00000000       0.00000000      -0.71653620      -3.41856271      -0.00000000
H        0.95883000       0.00000000       0.00000000      -2.49892600       3.81355312      -0.00000000
H        0.47563000       1.07875000       0.00000000       3.21546220      -0.39499041      -0.00000000
3
Lattice="15.0 0.0 0.0 0.0 15.0 0.0 0.0 0.0 15.0" Properties=species:S:1:pos:R:3:MACE_forces:R:3 energy=0.4104159908 MACE_energy=-0.6589751853886361 pbc="T T T"
O        0.00000000       0.00000000       0.00000000      -1.51144995      -5.39420236      -0.00000000
H        0.95883000       0.00000000       0.00000000      -2.03484454       2.77428462      -0.00000000
H        0.49049000       1.11246000       0.00000000       3.54629450       2.61991775      -0.00000000
3
Lattice="15.0 0.0 0.0 0.0 15.0 0.0 0.0 0.0 15.0" Properties=species:S:1:pos:R:3:MACE_forces:R:3 energy=0.5128908238 MACE_energy=-0.8631971085312242 pbc="T T T"
O        0.00000000       0.00000000       0.00000000      -2.33283669      -7.73967674      -0.00000000
H        0.95883000       0.00000000       0.00000000      -1.69855176       1.56437077      -0.00000000
H        0.50535000       1.14617000       0.00000000       4.03138845       6.17530597      -0.00000000
3
Lattice="15.0 0.0 0.0 0.0 15.0 0.0 0.0 0.0 15.0" Properties=species:S:1:pos:R:3:MACE_forces:R:3 energy=0.5765584693 MACE_energy=-1.1874855409944183 pbc="T T T"
O        0.00000000       0.00000000       0.00000000      -2.79718706      -9.60788187      -0.00000000
H        0.95883000       0.00000000       0.00000000      -1.64813320       0.56253201      -0.00000000
H        0.52022000       1.17988000       0.00000000       4.44532026       9.04534985      -0.00000000
3
Lattice="15.0 0.0 0.0 0.0 15.0 0.0 0.0 0.0 15.0" Properties=species:S:1:pos:R:3:MACE_forces:R:3 energy=0.5986407954 MACE_energy=-1.574148105277792 pbc="T T T"
O        0.00000000       0.00000000       0.00000000      -2.35251825      -9.66757266      -0.00000000
H        0.95883000       0.00000000       0.00000000      -1.99914262       0.25535657      -0.00000000
H        0.53508000       1.21359000       0.00000000       4.35166088       9.41221610      -0.00000000
3
Lattice="15.0 0.0 0.0 0.0 15.0 0.0 0.0 0.0 15.0" Properties=species:S:1:pos:R:3:MACE_forces:R:3 energy=0.5769178475 MACE_energy=-1.9096442784644716 pbc="T T T"
O        0.00000000       0.00000000       0.00000000      -0.80612609      -7.35208969      -0.00000000
H        0.95883000       0.00000000       0.00000000      -2.71504689       0.85276203      -0.00000000
H        0.54995000       1.24730000       0.00000000       3.52117299       6.49932766      -0.00000000
3
Lattice="15.0 0.0 0.0 0.0 15.0 0.0 0.0 0.0 15.0" Properties=species:S:1:pos:R:3:MACE_forces:R:3 energy=0.5095801315 MACE_energy=-2.097695739247285 pbc="T T T"
O        0.00000000       0.00000000       0.00000000       1.20113998      -3.83251090      -0.00000000
H        0.95883000       0.00000000       0.00000000      -3.42170858       1.72562333      -0.00000000
H        0.56481000       1.28101000       0.00000000       2.22056860       2.10688757      -0.00000000
3
Lattice="15.0 0.0 0.0 0.0 15.0 0.0 0.0 0.0 15.0" Properties=species:S:1:pos:R:3:MACE_forces:R:3 energy=0.237855565 MACE_energy=0.7332912232024473 pbc="T T T"
O        0.00000000       0.00000000       0.00000000       5.49582013      13.20244261      -0.00000000
H        0.95883000       0.00000000       0.00000000      -0.26050923      -0.22950812      -0.00000000
H        0.24731000       0.65486000       0.00000000      -5.23531090     -12.97293449      -0.00000000
3
Lattice="15.0 0.0 0.0 0.0 15.0 0.0 0.0 0.0 15.0" Properties=species:S:1:pos:R:3:MACE_forces:R:3 energy=-0.4204281468 MACE_energy=0.7155696478798501 pbc="T T T"
O        0.00000000       0.00000000       0.00000000      -2.78194050      -6.49918442      -0.00000000
H        0.95883000       0.00000000       0.00000000       0.87185694      -0.53725680      -0.00000000
H        0.26033000       0.68932000       0.00000000       1.91008356       7.03644122      -0.00000000
3
Lattice="15.0 0.0 0.0 0.0 15.0 0.0 0.0 0.0 15.0" Properties=species:S:1:pos:R:3:MACE_forces:R:3 energy=-0.8120753355 MACE_energy=0.2599066249109377 pbc="T T T"
O        0.00000000       0.00000000       0.00000000      -6.43110462     -14.50109933      -0.00000000
H        0.95883000       0.00000000       0.00000000       1.18678421      -0.24528984      -0.00000000