3
Lattice="15.0 0.0 0.0 0.0 15.0 0.0 0.0 0.0 15.0" Properties=species:S:1:pos:R:3 energy=-0.112/ -0.057/ -0.238 pbc="T T T"
O        0.01007920      -0.00085998       0.00000000
H        0.85217177      -0.03868234       0.00000000
H       -0.29082329       0.98127806       0.00000000
