3
Lattice="15.0 0.0 0.0 0.0 15.0 0.0 0.0 0.0 15.0" Properties=species:S:1:pos:R:3 energy=-0.085/ -0.021/ -0.076 pbc="T T T"
O        0.00435562       0.00118054       0.00000000
H        0.92342339      -0.02990310       0.00000000
H       -0.27123729       0.94011459       0.00000000
