3
Lattice="15.0 0.0 0.0 0.0 15.0 0.0 0.0 0.0 15.0" Properties=species:S:1:pos:R:3 energy=-0.205/ 0.02/ 0.193 pbc="T T T"
O       -0.00123915       0.00966197       0.00000000
H        1.03483363      -0.07419077       0.00000000
H       -0.29385585       0.84979635       0.00000000
