3
Lattice="15.0 0.0 0.0 0.0 15.0 0.0 0.0 0.0 15.0" Properties=species:S:1:pos:R:3 energy=0.366/ 0.167/ -0.082 pbc="T T T"
O       -0.00839769      -0.01558913       0.00000000
H        0.99152953       0.12722351       0.00000000
H       -0.13693487       1.04913428       0.00000000
