3
Lattice="15.0 0.0 0.0 0.0 15.0 0.0 0.0 0.0 15.0" Properties=species:S:1:pos:R:3 energy=0.266/ -0.044/ -0.272 pbc="T T T"
O        0.00249140      -0.01263229       0.00000000
H        0.84613206       0.09661401       0.00000000
H       -0.16435600       1.03281620       0.00000000
