3
Lattice="15.0 0.0 0.0 0.0 15.0 0.0 0.0 0.0 15.0" Properties=species:S:1:pos:R:3 energy=0.015/ 0.181/ 0.105 pbc="T T T"
O       -0.00617440      -0.00182365       0.00000000
H        1.06280188       0.00110425       0.00000000
H       -0.24349591       0.95678617       0.00000000
