3
Lattice="15.0 0.0 0.0 0.0 15.0 0.0 0.0 0.0 15.0" Properties=species:S:1:pos:R:3 energy=0.011/ -0.19/ -0.237 pbc="T T T"
O        0.00945190      -0.00163198       0.00000000
H        0.80449865       0.00850029       0.00000000
H       -0.23319332       0.94634715       0.00000000
