3
Lattice="15.0 0.0 0.0 0.0 15.0 0.0 0.0 0.0 15.0" Properties=species:S:1:pos:R:3 energy=-0.27/ 0.233/ 0.209 pbc="T T T"
O       -0.00361978       0.00753773       0.00000000
H        1.11784405      -0.10261792       0.00000000
H       -0.33908455       0.91193724       0.00000000
