3
Lattice="15.0 0.0 0.0 0.0 15.0 0.0 0.0 0.0 15.0" Properties=species:S:1:pos:R:3 energy=0.02/ 0.179/ 0.071 pbc="T T T"
O       -0.00528866      -0.00266183       0.00000000
H        1.04994031       0.00281680       0.00000000
H       -0.24469161       0.96837612       0.00000000
