3
Lattice="15.0 0.0 0.0 0.0 15.0 0.0 0.0 0.0 15.0" Properties=species:S:1:pos:R:3 energy=-0.1/ -0.174/ 0.055 pbc="T T T"
O        0.00340288       0.00759805       0.00000000
H        0.91472220      -0.03162639       0.00000000
H       -0.24741565       0.83998718       0.00000000
