3
Lattice="15.0 0.0 0.0 0.0 15.0 0.0 0.0 0.0 15.0" Properties=species:S:1:pos:R:3 energy=-0.091/ 0.209/ -0.223 pbc="T T T"
O        0.00500209      -0.00655535       0.00000000
H        0.95448442      -0.03761427       0.00000000
H       -0.31255847       1.07060017       0.00000000
