3
Lattice="15.0 0.0 0.0 0.0 15.0 0.0 0.0 0.0 15.0" Properties=species:S:1:pos:R:3 energy=0.082/ 0.133/ -0.103 pbc="T T T"
O       -0.00099958      -0.00731380       0.00000000
H        0.97049096       0.02631069       0.00000000
H       -0.23331249       1.01871200       0.00000000
