3
Lattice="15.0 0.0 0.0 0.0 15.0 0.0 0.0 0.0 15.0" Properties=species:S:1:pos:R:3 energy=-0.025/ -0.137/ -0.192 pbc="T T T"
O        0.00814867      -0.00068212       0.00000000
H        0.83972329      -0.00578438       0.00000000
H       -0.24773505       0.94555716       0.00000000
