3
Lattice="15.0 0.0 0.0 0.0 15.0 0.0 0.0 0.0 15.0" Properties=species:S:1:pos:R:3 energy=0.127/ -0.171/ -0.214 pbc="T T T"
O        0.00595359      -0.00482356       0.00000000
H        0.82011921       0.04954044       0.00000000
H       -0.19329193       0.95595964       0.00000000
