3
Lattice="15.0 0.0 0.0 0.0 15.0 0.0 0.0 0.0 15.0" Properties=species:S:1:pos:R:3 energy=-0.388/ -0.195/ 0.187 pbc="T T T"
O        0.00636412       0.01909546       0.00000000
H        0.95348331      -0.13444775       0.00000000
H       -0.33317659       0.76033678       0.00000000
