3
Lattice="15.0 0.0 0.0 0.0 15.0 0.0 0.0 0.0 15.0" Properties=species:S:1:pos:R:3 energy=0.295/ -0.005/ 0.186 pbc="T T T"
O       -0.01168699      -0.00420414       0.00000000
H        1.02503911       0.10586594       0.00000000
H       -0.11824161       0.88980386       0.00000000
