3
Lattice="15.0 0.0 0.0 0.0 15.0 0.0 0.0 0.0 15.0" Properties=species:S:1:pos:R:3 energy=0.047/ -0.085/ 0.162 pbc="T T T"
O       -0.00425804       0.00394129       0.00000000
H        0.98599431       0.01896463       0.00000000
H       -0.19710208       0.84743157       0.00000000
