3
Lattice="15.0 0.0 0.0 0.0 15.0 0.0 0.0 0.0 15.0" Properties=species:S:1:pos:R:3 energy=0.064/ 0.233/ -0.202 pbc="T T T"
O        0.00060395      -0.01100885       0.00000000
H        0.97154230       0.01737547       0.00000000
H       -0.25981316       1.08629050       0.00000000
