3
Lattice="15.0 0.0 0.0 0.0 15.0 0.0 0.0 0.0 15.0" Properties=species:S:1:pos:R:3 energy=-0.012/ 0.227/ 0.161 pbc="T T T"
O       -0.00786239      -0.00076455       0.00000000
H        1.09921919      -0.00970914       0.00000000
H       -0.25312400       0.95079115       0.00000000
