3
Lattice="15.0 0.0 0.0 0.0 15.0 0.0 0.0 0.0 15.0" Properties=species:S:1:pos:R:3 energy=0.237/ -0.192/ -0.138 pbc="T T T"
O        0.00167837      -0.00585002       0.00000000
H        0.84030929       0.08978446       0.00000000
H       -0.14563017       0.93200608       0.00000000
