3
Lattice="15.0 0.0 0.0 0.0 15.0 0.0 0.0 0.0 15.0" Properties=species:S:1:pos:R:3 energy=0.097/ 0.084/ 0.029 pbc="T T T"
O       -0.00430374      -0.00383731       0.00000000
H        1.00031169       0.03292030       0.00000000
H       -0.21069370       0.95692811       0.00000000
