3
Lattice="15.0 0.0 0.0 0.0 15.0 0.0 0.0 0.0 15.0" Properties=species:S:1:pos:R:3 energy=0.253/ 0.114/ 0.111 pbc="T T T"
O       -0.01051522      -0.00710039       0.00000000
H        1.04120684       0.08799648       0.00000000
H       -0.15300659       0.95363919       0.00000000
