3
Lattice="15.0 0.0 0.0 0.0 15.0 0.0 0.0 0.0 15.0" Properties=species:S:1:pos:R:3 energy=0.323/ -0.132/ -0.06 pbc="T T T"
O       -0.00336472      -0.00780650       0.00000000
H        0.89064670       0.11901217       0.00000000
H       -0.11592928       0.93382929       0.00000000
