3
Lattice="15.0 0.0 0.0 0.0 15.0 0.0 0.0 0.0 15.0" Properties=species:S:1:pos:R:3 energy=0.174/ 0.013/ 0.181 pbc="T T T"
O       -0.00915904      -0.00126990       0.00000000
H        1.02922069       0.06221862       0.00000000
H       -0.16254483       0.88688294       0.00000000
