3
Lattice="15.0 0.0 0.0 0.0 15.0 0.0 0.0 0.0 15.0" Properties=species:S:1:pos:R:3 energy=-0.139/ 0.245/ -0.058 pbc="T T T"
O        0.00086265      -0.00229826       0.00000000
H        1.02651535      -0.05594755       0.00000000
H       -0.31889403       1.02137071       0.00000000
