3
Lattice="15.0 0.0 0.0 0.0 15.0 0.0 0.0 0.0 15.0" Properties=species:S:1:pos:R:3 energy=0.162/ 0.251/ -0.176 pbc="T T T"
O       -0.00258485      -0.01356617       0.00000000
H        0.98787106       0.05205265       0.00000000
H       -0.22553242       1.09219983       0.00000000
