3
Lattice="15.0 0.0 0.0 0.0 15.0 0.0 0.0 0.0 15.0" Properties=species:S:1:pos:R:3 energy=0.351/ -0.012/ 0.042 pbc="T T T"
O       -0.00873655      -0.00883241       0.00000000
H        0.97076814       0.12623100       0.00000000
H       -0.11079571       0.94289266       0.00000000
