3
Lattice="15.0 0.0 0.0 0.0 15.0 0.0 0.0 0.0 15.0" Properties=species:S:1:pos:R:3 energy=0.074/ 0.138/ 0.005 pbc="T T T"
O       -0.00397301      -0.00481046       0.00000000
H        1.01147180       0.02324465       0.00000000
H       -0.22710300       0.98204845       0.00000000
