3
Lattice="15.0 0.0 0.0 0.0 15.0 0.0 0.0 0.0 15.0" Properties=species:S:1:pos:R:3 energy=0.226/ 0.241/ 0.22 pbc="T T T"
O       -0.01500933      -0.00651423       0.00000000
H        1.12654133       0.07527056       0.00000000
H       -0.16701676       0.95706277       0.00000000
