3
Lattice="15.0 0.0 0.0 0.0 15.0 0.0 0.0 0.0 15.0" Properties=species:S:1:pos:R:3 energy=-0.169/ 0.222/ -0.17 pbc="T T T"
O        0.00503195      -0.00342540       0.00000000
H        0.97800889      -0.06611189       0.00000000
H       -0.33655750       1.04942340       0.00000000
