3
Lattice="15.0 0.0 0.0 0.0 15.0 0.0 0.0 0.0 15.0" Properties=species:S:1:pos:R:3 energy=-0.203/ 0.198/ -0.051 pbc="T T T"
O        0.00277643       0.00062378       0.00000000
H        1.01197940      -0.07745266       0.00000000
H       -0.33473164       0.99650094       0.00000000
