3
Lattice="15.0 0.0 0.0 0.0 15.0 0.0 0.0 0.0 15.0" Properties=species:S:1:pos:R:3 energy=-0.309/ 0.254/ 0.139 pbc="T T T"
O       -0.00112443       0.00663442       0.00000000
H        1.10031447      -0.11691219       0.00000000
H       -0.36115837       0.94056770       0.00000000
