3
Lattice="15.0 0.0 0.0 0.0 15.0 0.0 0.0 0.0 15.0" Properties=species:S:1:pos:R:3 energy=0.367/ 0.032/ -0.14 pbc="T T T"
O       -0.00466149      -0.01413792       0.00000000
H        0.92185928       0.13070634       0.00000000
H       -0.12656090       1.02261938       0.00000000
