3
Lattice="15.0 0.0 0.0 0.0 15.0 0.0 0.0 0.0 15.0" Properties=species:S:1:pos:R:3 energy=0.096/ -0.07/ 0.034 pbc="T T T"
O       -0.00196669      -0.00057179       0.00000000
H        0.94562231       0.03629654       0.00000000
H       -0.19309488       0.90172528       0.00000000
