3
Lattice="15.0 0.0 0.0 0.0 15.0 0.0 0.0 0.0 15.0" Properties=species:S:1:pos:R:3 energy=-0.169/ 0.092/ -0.19 pbc="T T T"
O        0.00764050      -0.00120555       0.00000000
H        0.92358306      -0.06299144       0.00000000
H       -0.32353124       1.01107214       0.00000000
