3
Lattice="15.0 0.0 0.0 0.0 15.0 0.0 0.0 0.0 15.0" Properties=species:S:1:pos:R:3 energy=-0.296/ 0.113/ 0.172 pbc="T T T"
O       -0.00011595       0.00988439       0.00000000
H        1.06060851      -0.10874874       0.00000000
H       -0.33745763       0.88082462       0.00000000
