3
Lattice="15.0 0.0 0.0 0.0 15.0 0.0 0.0 0.0 15.0" Properties=species:S:1:pos:R:3 energy=0.25/ -0.152/ 0.277 pbc="T T T"
O       -0.01092846       0.00208684       0.00000000
H        1.00375558       0.09322217       0.00000000
H       -0.10899699       0.80260512       0.00000000
