3
Lattice="15.0 0.0 0.0 0.0 15.0 0.0 0.0 0.0 15.0" Properties=species:S:1:pos:R:3 energy=-0.043/ 0.25/ -0.027 pbc="T T T"
O       -0.00224246      -0.00448526       0.00000000
H        1.04014915      -0.02137589       0.00000000
H       -0.28324647       1.02150819       0.00000000
