3
Lattice="15.0 0.0 0.0 0.0 15.0 0.0 0.0 0.0 15.0" Properties=species:S:1:pos:R:3 energy=-0.097/ -0.147/ -0.26 pbc="T T T"
O        0.01181088       0.00004547       0.00000000
H        0.81141405      -0.03122727       0.00000000
H       -0.27754839       0.95945262       0.00000000
