3
Lattice="15.0 0.0 0.0 0.0 15.0 0.0 0.0 0.0 15.0" Properties=species:S:1:pos:R:3 energy=0.068/ 0.29/ 0.133 pbc="T T T"
O       -0.00983930      -0.00494575       0.00000000
H        1.11251146       0.01750743       0.00000000
H       -0.23504048       0.98993317       0.00000000
