3
Lattice="15.0 0.0 0.0 0.0 15.0 0.0 0.0 0.0 15.0" Properties=species:S:1:pos:R:3 energy=0.322/ 0.191/ 0.292 pbc="T T T"
O       -0.01834459      -0.00664164       0.00000000
H        1.13438950       0.11068151       0.00000000
H       -0.12193094       0.92367362       0.00000000
