3
Lattice="15.0 0.0 0.0 0.0 15.0 0.0 0.0 0.0 15.0" Properties=species:S:1:pos:R:3 energy=0.392/ -0.195/ 0.202 pbc="T T T"
O       -0.01126053      -0.00272452       0.00000000
H        0.96164801       0.14517255       0.00000000
H       -0.06161789       0.82701406       0.00000000
