3
Lattice="15.0 0.0 0.0 0.0 15.0 0.0 0.0 0.0 15.0" Properties=species:S:1:pos:R:3 energy=0.227/ -0.12/ 0.213 pbc="T T T"
O       -0.00910790       0.00066875       0.00000000
H        0.99217953       0.08424306       0.00000000
H       -0.12631476       0.83409048       0.00000000
