3
Lattice="15.0 0.0 0.0 0.0 15.0 0.0 0.0 0.0 15.0" Properties=species:S:1:pos:R:3 energy=0.252/ -0.009/ -0.094 pbc="T T T"
O       -0.00276394      -0.00901966       0.00000000
H        0.92278585       0.09047392       0.00000000
H       -0.15760406       0.98162156       0.00000000
