3
Lattice="15.0 0.0 0.0 0.0 15.0 0.0 0.0 0.0 15.0" Properties=species:S:1:pos:R:3 energy=-0.346/ 0.158/ -0.003 pbc="T T T"
O        0.00523105       0.00655084       0.00000000
H        1.01396514      -0.12792142       0.00000000
H       -0.37567534       0.95290312       0.00000000
