3
Lattice="15.0 0.0 0.0 0.0 15.0 0.0 0.0 0.0 15.0" Properties=species:S:1:pos:R:3 energy=0.254/ 0.129/ -0.089 pbc="T T T"
O       -0.00513688      -0.01179220       0.00000000
H        0.97486051       0.08801711       0.00000000
H       -0.17201838       1.02808082       0.00000000
