3
Lattice="15.0 0.0 0.0 0.0 15.0 0.0 0.0 0.0 15.0" Properties=species:S:1:pos:R:3 energy=-0.055/ 0.222/ -0.221 pbc="T T T"
O        0.00393061      -0.00780825       0.00000000
H        0.96033812      -0.02500696       0.00000000
H       -0.30140659       1.07787728       0.00000000
