3
Lattice="15.0 0.0 0.0 0.0 15.0 0.0 0.0 0.0 15.0" Properties=species:S:1:pos:R:3 energy=-0.187/ -0.11/ -0.059 pbc="T T T"
O        0.00750930       0.00625766       0.00000000
H        0.89713405      -0.06435274       0.00000000
H       -0.29500018       0.89398658       0.00000000
