3
Lattice="15.0 0.0 0.0 0.0 15.0 0.0 0.0 0.0 15.0" Properties=species:S:1:pos:R:3 energy=0.244/ 0.107/ 0.163 pbc="T T T"
O       -0.01167269      -0.00555317       0.00000000
H        1.05726348       0.08491744       0.00000000
H       -0.15069352       0.93216271       0.00000000
