3
Lattice="15.0 0.0 0.0 0.0 15.0 0.0 0.0 0.0 15.0" Properties=species:S:1:pos:R:3 energy=-0.05/ -0.134/ -0.243 pbc="T T T"
O        0.01007616      -0.00115389       0.00000000
H        0.82268286      -0.01481997       0.00000000
H       -0.26128556       0.96208003       0.00000000
