 3
 energy=6.8830419342948517 cutoff=3.81000000 nneightol=1.20000000 pbc="T T T" Lattice="15.00000000       0.00000000       0.00000000       0.00000000      15.00000000       0.00000000       0.00000000       0.00000000      15.00000000" Properties=species:S:1:pos:R:3:Z:I:1:map_shift:I:3:n_neighb:I:1
 O               0.00000000      0.00000000      0.00000000       8       0       0       0       2
 H               0.70000000      0.00000000      0.00000000       1       0       0       0       2
 H              -0.17340000      0.67818000      0.00000000       1       0       0       0       2
 3
 energy=6.0839636310048206 cutoff=3.81000000 nneightol=1.20000000 pbc="T T T" Lattice="15.00000000       0.00000000       0.00000000       0.00000000      15.00000000       0.00000000       0.00000000       0.00000000      15.00000000" Properties=species:S:1:pos:R:3:Z:I:1:map_shift:I:3:n_neighb:I:1
 O               0.00000000      0.00000000      0.00000000       8       0       0       0       2
 H               0.70000000      0.00000000      0.00000000       1       0       0       0       2
 H              -0.17938000      0.70157000      0.00000000       1       0       0       0       2
 3
 energy=5.4284300730633248 cutoff=3.81000000 nneightol=1.20000000 pbc="T T T" Lattice="15.00000000       0.00000000       0.00000000       0.00000000      15.00000000       0.00000000       0.00000000       0.00000000      15.00000000" Properties=species:S:1:pos:R:3:Z:I:1:map_shift:I:3:n_neighb:I:1
 O               0.00000000      0.00000000      0.00000000       8       0       0       0       2
 H               0.70000000      0.00000000      0.00000000       1       0       0       0       2
 H              -0.18536000      0.72496000      0.00000000       1       0       0       0       2
 3
 energy=4.8983027880879604 cutoff=3.81000000 nneightol=1.20000000 pbc="T T T" Lattice="15.00000000       0.00000000       0.00000000       0.00000000      15.00000000       0.00000000       0.00000000       0.00000000      15.00000000" Properties=species:S:1:pos:R:3:Z:I:1:map_shift:I:3:n_neighb:I:1
 O               0.00000000      0.00000000      0.00000000       8       0       0       0       2
 H               0.70000000      0.00000000      0.00000000       1       0       0       0       2
 H              -0.19134000      0.74834000      0.00000000       1       0       0       0       2
 3
 energy=4.4761177420514002 cutoff=3.81000000 nneightol=1.20000000 pbc="T T T" Lattice="15.00000000       0.00000000       0.00000000       0.00000000      15.00000000       0.00000000       0.00000000       0.00000000      15.00000000" Properties=species:S:1:pos:R:3:Z:I:1:map_shift:I:3:n_neighb:I:1
 O               0.00000000      0.00000000      0.00000000       8       0       0       0       2
 H               0.70000000      0.00000000      0.00000000       1       0       0       0       2
 H              -0.19732000      0.77172000      0.00000000       1       0       0       0       2
 3
 energy=4.1461985344672883 cutoff=3.81000000 nneightol=1.20000000 pbc="T T T" Lattice="15.00000000       0.00000000       0.00000000       0.00000000      15.00000000       0.00000000       0.00000000       0.00000000      15.00000000" Properties=species:S:1:pos:R:3:Z:I:1:map_shift:I:3:n_neighb:I:1
 O               0.00000000      0.00000000      0.00000000       8       0       0       0       2
 H               0.70000000      0.00000000      0.00000000       1       0       0       0       2
 H              -0.20330000      0.79511000      0.00000000       1       0       0       0       2
 3
 energy=3.8949925100649949 cutoff=3.81000000 nneightol=1.20000000 pbc="T T T" Lattice="15.00000000       0.00000000       0.00000000       0.00000000      15.00000000       0.00000000       0.00000000       0.00000000      15.00000000" Properties=species:S:1:pos:R:3:Z:I:1:map_shift:I:3:n_neighb:I:1
 O               0.00000000      0.00000000      0.00000000       8       0       0       0       2
 H               0.70000000      0.00000000      0.00000000       1       0       0       0       2
 H              -0.20928000      0.81850000      0.00000000       1       0       0       0       2
 3
 energy=3.7106297621477182 cutoff=3.81000000 nneightol=1.20000000 pbc="T T T" Lattice="15.00000000       0.00000000       0.00000000       0.00000000      15.00000000       0.00000000       0.00000000       0.00000000      15.00000000" Properties=species:S:1:pos:R:3:Z:I:1:map_shift:I:3:n_neighb:I:1
 O               0.00000000      0.00000000      0.00000000       8       0       0       0       2
 H               0.70000000      0.00000000      0.00000000       1       0       0       0       2
 H              -0.21526000      0.84189000      0.00000000       1       0       0       0       2
 3
 energy=3.5830787034027054 cutoff=3.81000000 nneightol=1.20000000 pbc="T T T" Lattice="15.00000000       0.00000000       0.00000000       0.00000000      15.00000000       0.00000000       0.00000000       0.00000000      15.00000000" Properties=species:S:1:pos:R:3:Z:I:1:map_shift:I:3:n_neighb:I:1
 O               0.00000000      0.00000000      0.00000000       8       0       0       0       2
 H               0.70000000      0.00000000      0.00000000       1       0       0       0       2
 H              -0.22124000      0.86526000      0.00000000       1       0       0       0       2
 3
 energy=3.5035995908570072 cutoff=3.81000000 nneightol=1.20000000 pbc="T T T" Lattice="15.00000000       0.00000000       0.00000000       0.00000000      15.00000000       0.00000000       0.00000000       0.00000000      15.00000000" Properties=species:S:1:pos:R:3:Z:I:1:map_shift:I:3:n_neighb:I:1
 O               0.00000000      0.00000000      0.00000000       8       0       0       0       2
 H               0.70000000      0.00000000      0.00000000       1       0       0       0       2
 H              -0.22722000      0.88865000      0.00000000       1       0       0       0       2
 3
 energy=3.4650993295426247 cutoff=3.81000000 nneightol=1.20000000 pbc="T T T" Lattice="15.00000000       0.00000000       0.00000000       0.00000000      15.00000000       0.00000000       0.00000000       0.00000000      15.00000000" Properties=species:S:1:pos:R:3:Z:I:1:map_shift:I:3:n_neighb:I:1
 O               0.00000000      0.00000000      0.00000000       8       0       0       0       2
 H               0.70000000      0.00000000      0.00000000       1       0       0       0       2
 H              -0.23319000      0.91204000      0.00000000       1       0       0       0       2
 3
 energy=3.4614287445662768 cutoff=3.81000000 nneightol=1.20000000 pbc="T T T" Lattice="15.00000000       0.00000000       0.00000000       0.00000000      15.00000000       0.00000000       0.00000000       0.00000000      15.00000000" Properties=species:S:1:pos:R:3:Z:I:1:map_shift:I:3:n_neighb:I:1
 O               0.00000000      0.00000000      0.00000000       8       0       0       0       2
 H               0.70000000      0.00000000      0.00000000       1       0       0       0       2
 H              -0.23917000      0.93543000      0.00000000       1       0       0       0       2
 3
 energy=3.4873232908086180 cutoff=3.81000000 nneightol=1.20000000 pbc="T T T" Lattice="15.00000000       0.00000000       0.00000000       0.00000000      15.00000000       0.00000000       0.00000000       0.00000000      15.00000000" Properties=species:S:1:pos:R:3:Z:I:1:map_shift:I:3:n_neighb:I:1
 O               0.00000000      0.00000000      0.00000000       8       0       0       0       2
 H               0.70000000      0.00000000      0.00000000       1       0       0       0       2
 H              -0.24515000      0.95881000      0.00000000       1       0       0       0       2
 3
 energy=3.5382200965266009 cutoff=3.81000000 nneightol=1.20000000 pbc="T T T" Lattice="15.00000000       0.00000000       0.00000000       0.00000000      15.00000000       0.00000000       0.00000000       0.00000000      15.00000000" Properties=species:S:1:pos:R:3:Z:I:1:map_shift:I:3:n_neighb:I:1
 O               0.00000000      0.00000000      0.00000000       8       0       0       0       2
 H               0.70000000      0.00000000      0.00000000       1       0       0       0       2
 H              -0.25113000      0.98219000      0.00000000       1       0       0       0       2
 3
 energy=3.6101666095503475 cutoff=3.81000000 nneightol=1.20000000 pbc="T T T" Lattice="15.00000000       0.00000000       0.00000000       0.00000000      15.00000000       0.00000000       0.00000000       0.00000000      15.00000000" Properties=species:S:1:pos:R:3:Z:I:1:map_shift:I:3:n_neighb:I:1
 O               0.00000000      0.00000000      0.00000000       8       0       0       0       2
 H               0.70000000      0.00000000      0.00000000       1       0       0       0       2
 H              -0.25711000      1.00558000      0.00000000       1       0       0       0       2
 3
 energy=3.6996443060958342 cutoff=3.81000000 nneightol=1.20000000 pbc="T T T" Lattice="15.00000000       0.00000000       0.00000000       0.00000000      15.00000000       0.00000000       0.00000000       0.00000000      15.00000000" Properties=species:S:1:pos:R:3:Z:I:1:map_shift:I:3:n_neighb:I:1
 O               0.00000000      0.00000000      0.00000000       8       0       0       0       2
 H               0.70000000      0.00000000      0.00000000       1       0       0       0       2
 H              -0.26309000      1.02897000      0.00000000       1       0       0       0       2
 3
 energy=3.8035904943751291 cutoff=3.81000000 nneightol=1.20000000 pbc="T T T" Lattice="15.00000000       0.00000000       0.00000000       0.00000000      15.00000000       0.00000000       0.00000000       0.00000000      15.00000000" Properties=species:S:1:pos:R:3:Z:I:1:map_shift:I:3:n_neighb:I:1
 O               0.00000000      0.00000000      0.00000000       8       0       0       0       2
 H               0.70000000      0.00000000      0.00000000       1       0       0       0       2
 H              -0.26907000      1.05236000      0.00000000       1       0       0       0       2
 3
 energy=3.9192545189428074 cutoff=3.81000000 nneightol=1.20000000 pbc="T T T" Lattice="15.00000000       0.00000000       0.00000000       0.00000000      15.00000000       0.00000000       0.00000000       0.00000000      15.00000000" Properties=species:S:1:pos:R:3:Z:I:1:map_shift:I:3:n_neighb:I:1
 O               0.00000000      0.00000000      0.00000000       8       0       0       0       2
 H               0.70000000      0.00000000      0.00000000       1       0       0       0       2
 H              -0.27505000      1.07573000      0.00000000       1       0       0       0       2
 3
 energy=4.0445561567926518 cutoff=3.81000000 nneightol=1.20000000 pbc="T T T" Lattice="15.00000000       0.00000000       0.00000000       0.00000000      15.00000000       0.00000000       0.00000000       0.00000000      15.00000000" Properties=species:S:1:pos:R:3:Z:I:1:map_shift:I:3:n_neighb:I:1
 O               0.00000000      0.00000000      0.00000000       8       0       0       0       2
 H               0.70000000      0.00000000      0.00000000       1       0       0       0       2
 H              -0.28103000      1.09912000      0.00000000       1       0       0       0       2
 3
 energy=4.1774943893201737 cutoff=3.81000000 nneightol=1.20000000 pbc="T T T" Lattice="15.00000000       0.00000000       0.00000000       0.00000000      15.00000000       0.00000000       0.00000000       0.00000000      15.00000000" Properties=species:S:1:pos:R:3:Z:I:1:map_shift:I:3:n_neighb:I:1
 O               0.00000000      0.00000000      0.00000000       8       0       0       0       2
 H               0.70000000      0.00000000      0.00000000       1       0       0       0       2
 H              -0.28701000      1.12251000      0.00000000       1       0       0       0       2
 3
 energy=4.3164756308708263 cutoff=3.81000000 nneightol=1.20000000 pbc="T T T" Lattice="15.00000000       0.00000000       0.00000000       0.00000000      15.00000000       0.00000000       0.00000000       0.00000000      15.00000000" Properties=species:S:1:pos:R:3:Z:I:1:map_shift:I:3:n_neighb:I:1
 O               0.00000000      0.00000000      0.00000000       8       0       0       0       2
 H               0.70000000      0.00000000      0.00000000       1       0       0       0       2
 H              -0.29299000      1.14590000      0.00000000       1       0       0       0       2
 3
 energy=4.4601178780877859 cutoff=3.81000000 nneightol=1.20000000 pbc="T T T" Lattice="15.00000000       0.00000000       0.00000000       0.00000000      15.00000000       0.00000000       0.00000000       0.00000000      15.00000000" Properties=species:S:1:pos:R:3:Z:I:1:map_shift:I:3:n_neighb:I:1
 O               0.00000000      0.00000000      0.00000000       8       0       0       0       2
 H               0.70000000      0.00000000      0.00000000       1       0       0       0       2
 H              -0.29897000      1.16928000      0.00000000       1       0       0       0       2
 3
 energy=4.6073660081526242 cutoff=3.81000000 nneightol=1.20000000 pbc="T T T" Lattice="15.00000000       0.00000000       0.00000000       0.00000000      15.00000000       0.00000000       0.00000000       0.00000000      15.00000000" Properties=species:S:1:pos:R:3:Z:I:1:map_shift:I:3:n_neighb:I:1
 O               0.00000000      0.00000000      0.00000000       8       0       0       0       2
 H               0.70000000      0.00000000      0.00000000       1       0       0       0       2
 H              -0.30495000      1.19266000      0.00000000       1       0       0       0       2
 3
 energy=4.7573210058557578 cutoff=3.81000000 nneightol=1.20000000 pbc="T T T" Lattice="15.00000000       0.00000000       0.00000000       0.00000000      15.00000000       0.00000000       0.00000000       0.00000000      15.00000000" Properties=species:S:1:pos:R:3:Z:I:1:map_shift:I:3:n_neighb:I:1
 O               0.00000000      0.00000000      0.00000000       8       0       0       0       2
 H               0.70000000      0.00000000      0.00000000       1       0       0       0       2
 H              -0.31093000      1.21605000      0.00000000       1       0       0       0       2
 3
 energy=4.9090520171968706 cutoff=3.81000000 nneightol=1.20000000 pbc="T T T" Lattice="15.00000000       0.00000000       0.00000000       0.00000000      15.00000000       0.00000000       0.00000000       0.00000000      15.00000000" Properties=species:S:1:pos:R:3:Z:I:1:map_shift:I:3:n_neighb:I:1
 O               0.00000000      0.00000000      0.00000000       8       0       0       0       2
 H               0.70000000      0.00000000      0.00000000       1       0       0       0       2
 H              -0.31691000      1.23944000      0.00000000       1       0       0       0       2
 3
 energy=5.0616533019321395 cutoff=3.81000000 nneightol=1.20000000 pbc="T T T" Lattice="15.00000000       0.00000000       0.00000000       0.00000000      15.00000000       0.00000000       0.00000000       0.00000000      15.00000000" Properties=species:S:1:pos:R:3:Z:I:1:map_shift:I:3:n_neighb:I:1
 O               0.00000000      0.00000000      0.00000000       8       0       0       0       2
 H               0.70000000      0.00000000      0.00000000       1       0       0       0       2
 H              -0.32289000      1.26282000      0.00000000       1       0       0       0       2
 3
 energy=5.2143764021751053 cutoff=3.81000000 nneightol=1.20000000 pbc="T T T" Lattice="15.00000000       0.00000000       0.00000000       0.00000000      15.00000000       0.00000000       0.00000000       0.00000000      15.00000000" Properties=species:S:1:pos:R:3:Z:I:1:map_shift:I:3:n_neighb:I:1
 O               0.00000000      0.00000000      0.00000000       8       0       0       0       2
 H               0.70000000      0.00000000      0.00000000       1       0       0       0       2
 H              -0.32887000      1.28621000      0.00000000       1       0       0       0       2
 3
 energy=5.3661451945730505 cutoff=3.81000000 nneightol=1.20000000 pbc="T T T" Lattice="15.00000000       0.00000000       0.00000000       0.00000000      15.00000000       0.00000000       0.00000000       0.00000000      15.00000000" Properties=species:S:1:pos:R:3:Z:I:1:map_shift:I:3:n_neighb:I:1
 O               0.00000000      0.00000000      0.00000000       8       0       0       0       2
 H               0.70000000      0.00000000      0.00000000       1       0       0       0       2
 H              -0.33484000      1.30959000      0.00000000       1       0       0       0       2
 3
 energy=5.5160853760068278 cutoff=3.81000000 nneightol=1.20000000 pbc="T T T" Lattice="15.00000000       0.00000000       0.00000000       0.00000000      15.00000000       0.00000000       0.00000000       0.00000000      15.00000000" Properties=species:S:1:pos:R:3:Z:I:1:map_shift:I:3:n_neighb:I:1
 O               0.00000000      0.00000000      0.00000000       8       0       0       0       2
 H               0.70000000      0.00000000      0.00000000       1       0       0       0       2
 H              -0.34082000      1.33298000      0.00000000       1       0       0       0       2
 3
 energy=5.6629844586325078 cutoff=3.81000000 nneightol=1.20000000 pbc="T T T" Lattice="15.00000000       0.00000000       0.00000000       0.00000000      15.00000000       0.00000000       0.00000000       0.00000000      15.00000000" Properties=species:S:1:pos:R:3:Z:I:1:map_shift:I:3:n_neighb:I:1
 O               0.00000000      0.00000000      0.00000000       8       0       0       0       2
 H               0.70000000      0.00000000      0.00000000       1       0       0       0       2
 H              -0.34680000      1.35637000      0.00000000       1       0       0       0       2
 3
 energy=6.0840529506916994 cutoff=3.81000000 nneightol=1.20000000 pbc="T T T" Lattice="15.00000000       0.00000000       0.00000000       0.00000000      15.00000000       0.00000000       0.00000000       0.00000000      15.00000000" Properties=species:S:1:pos:R:3:Z:I:1:map_shift:I:3:n_neighb:I:1
 O               0.00000000      0.00000000      0.00000000       8       0       0       0       2
 H               0.72414000      0.00000000      0.00000000       1       0       0       0       2
 H              -0.17340000      0.67818000      0.00000000       1       0       0       0       2
 3
 energy=5.2835649448589805 cutoff=3.81000000 nneightol=1.20000000 pbc="T T T" Lattice="15.00000000       0.00000000       0.00000000       0.00000000      15.00000000       0.00000000       0.00000000       0.00000000      15.00000000" Properties=species:S:1:pos:R:3:Z:I:1:map_shift:I:3:n_neighb:I:1
 O               0.00000000      0.00000000      0.00000000       8       0       0       0       2
 H               0.72414000      0.00000000      0.00000000       1       0       0       0       2
 H              -0.17938000      0.70157000      0.00000000       1       0       0       0       2
 3
 energy=4.6272365827910988 cutoff=3.81000000 nneightol=1.20000000 pbc="T T T" Lattice="15.00000000       0.00000000       0.00000000       0.00000000      15.00000000       0.00000000       0.00000000       0.00000000      15.00000000" Properties=species:S:1:pos:R:3:Z:I:1:map_shift:I:3:n_neighb:I:1
 O               0.00000000      0.00000000      0.00000000       8       0       0       0       2
 H               0.72414000      0.00000000      0.00000000       1       0       0       0       2
 H              -0.18536000      0.72496000      0.00000000       1       0       0       0       2
 3
 energy=4.0966650764811163 cutoff=3.81000000 nneightol=1.20000000 pbc="T T T" Lattice="15.00000000       0.00000000       0.00000000       0.00000000      15.00000000       0.00000000       0.00000000       0.00000000      15.00000000" Properties=species:S:1:pos:R:3:Z:I:1:map_shift:I:3:n_neighb:I:1
 O               0.00000000      0.00000000      0.00000000       8       0       0       0       2
 H               0.72414000      0.00000000      0.00000000       1       0       0       0       2
 H              -0.19134000      0.74834000      0.00000000       1       0       0       0       2
 3
 energy=3.6741977962049646 cutoff=3.81000000 nneightol=1.20000000 pbc="T T T" Lattice="15.00000000       0.00000000       0.00000000       0.00000000      15.00000000       0.00000000       0.00000000       0.00000000      15.00000000" Properties=species:S:1:pos:R:3:Z:I:1:map_shift:I:3:n_neighb:I:1
 O               0.00000000      0.00000000      0.00000000       8       0       0       0       2
 H               0.72414000      0.00000000      0.00000000       1       0       0       0       2
 H              -0.19732000      0.77172000      0.00000000       1       0       0       0       2
 3
 energy=3.3440353504493316 cutoff=3.81000000 nneightol=1.20000000 pbc="T T T" Lattice="15.00000000       0.00000000       0.00000000       0.00000000      15.00000000       0.00000000       0.00000000       0.00000000      15.00000000" Properties=species:S:1:pos:R:3:Z:I:1:map_shift:I:3:n_neighb:I:1
 O               0.00000000      0.00000000      0.00000000       8       0       0       0       2
 H               0.72414000      0.00000000      0.00000000       1       0       0       0       2
 H              -0.20330000      0.79511000      0.00000000       1       0       0       0       2
 3
 energy=3.0925541468345870 cutoff=3.81000000 nneightol=1.20000000 pbc="T T T" Lattice="15.00000000       0.00000000       0.00000000       0.00000000      15.00000000       0.00000000       0.00000000       0.00000000      15.00000000" Properties=species:S:1:pos:R:3:Z:I:1:map_shift:I:3:n_neighb:I:1
 O               0.00000000      0.00000000      0.00000000       8       0       0       0       2
 H               0.72414000      0.00000000      0.00000000       1       0       0       0       2
 H              -0.20928000      0.81850000      0.00000000       1       0       0       0       2
 3
 energy=2.9078510887997169 cutoff=3.81000000 nneightol=1.20000000 pbc="T T T" Lattice="15.00000000       0.00000000       0.00000000       0.00000000      15.00000000       0.00000000       0.00000000       0.00000000      15.00000000" Properties=species:S:1:pos:R:3:Z:I:1:map_shift:I:3:n_neighb:I:1
 O               0.00000000      0.00000000      0.00000000       8       0       0       0       2
 H               0.72414000      0.00000000      0.00000000       1       0       0       0       2
 H              -0.21526000      0.84189000      0.00000000       1       0       0       0       2
 3
 energy=2.7798881861384359 cutoff=3.81000000 nneightol=1.20000000 pbc="T T T" Lattice="15.00000000       0.00000000       0.00000000       0.00000000      15.00000000       0.00000000       0.00000000       0.00000000      15.00000000" Properties=species:S:1:pos:R:3:Z:I:1:map_shift:I:3:n_neighb:I:1
 O               0.00000000      0.00000000      0.00000000       8       0       0       0       2
 H               0.72414000      0.00000000      0.00000000       1       0       0       0       2
 H              -0.22124000      0.86526000      0.00000000       1       0       0       0       2
 3
 energy=2.6999343686199069 cutoff=3.81000000 nneightol=1.20000000 pbc="T T T" Lattice="15.00000000       0.00000000       0.00000000       0.00000000      15.00000000       0.00000000       0.00000000       0.00000000      15.00000000" Properties=species:S:1:pos:R:3:Z:I:1:map_shift:I:3:n_neighb:I:1
 O               0.00000000      0.00000000      0.00000000       8       0       0       0       2
 H               0.72414000      0.00000000      0.00000000       1       0       0       0       2
 H              -0.22722000      0.88865000      0.00000000       1       0       0       0       2
 3
 energy=2.6609164602506183 cutoff=3.81000000 nneightol=1.20000000 pbc="T T T" Lattice="15.00000000       0.00000000       0.00000000       0.00000000      15.00000000       0.00000000       0.00000000       0.00000000      15.00000000" Properties=species:S:1:pos:R:3:Z:I:1:map_shift:I:3:n_neighb:I:1
 O               0.00000000      0.00000000      0.00000000       8       0       0       0       2
 H               0.72414000      0.00000000      0.00000000       1       0       0       0       2
 H              -0.23319000      0.91204000      0.00000000       1       0       0       0       2
 3
 energy=2.6567105525200958 cutoff=3.81000000 nneightol=1.20000000 pbc="T T T" Lattice="15.00000000       0.00000000       0.00000000       0.00000000      15.00000000       0.00000000       0.00000000       0.00000000      15.00000000" Properties=species:S:1:pos:R:3:Z:I:1:map_shift:I:3:n_neighb:I:1
 O               0.00000000      0.00000000      0.00000000       8       0       0       0       2
 H               0.72414000      0.00000000      0.00000000       1       0       0       0       2
 H              -0.23917000      0.93543000      0.00000000       1       0       0       0       2
 3
 energy=2.6820781191871674 cutoff=3.81000000 nneightol=1.20000000 pbc="T T T" Lattice="15.00000000       0.00000000       0.00000000       0.00000000      15.00000000       0.00000000       0.00000000       0.00000000      15.00000000" Properties=species:S:1:pos:R:3:Z:I:1:map_shift:I:3:n_neighb:I:1
 O               0.00000000      0.00000000      0.00000000       8       0       0       0       2
 H               0.72414000      0.00000000      0.00000000       1       0       0       0       2
 H              -0.24515000      0.95881000      0.00000000       1       0       0       0       2
 3
 energy=2.7324807081008089 cutoff=3.81000000 nneightol=1.20000000 pbc="T T T" Lattice="15.00000000       0.00000000       0.00000000       0.00000000      15.00000000       0.00000000       0.00000000       0.00000000      15.00000000" Properties=species:S:1:pos:R:3:Z:I:1:map_shift:I:3:n_neighb:I:1
 O               0.00000000      0.00000000      0.00000000       8       0       0       0       2
 H               0.72414000      0.00000000      0.00000000       1       0       0       0       2
 H              -0.25113000      0.98219000      0.00000000       1       0       0       0       2
 3
 energy=2.8039864264696348 cutoff=3.81000000 nneightol=1.20000000 pbc="T T T" Lattice="15.00000000       0.00000000       0.00000000       0.00000000      15.00000000       0.00000000       0.00000000       0.00000000      15.00000000" Properties=species:S:1:pos:R:3:Z:I:1:map_shift:I:3:n_neighb:I:1
 O               0.00000000      0.00000000      0.00000000       8       0       0       0       2
 H               0.72414000      0.00000000      0.00000000       1       0       0       0       2
 H              -0.25711000      1.00558000      0.00000000       1       0       0       0       2
 3
 energy=2.8930917147401374 cutoff=3.81000000 nneightol=1.20000000 pbc="T T T" Lattice="15.00000000       0.00000000       0.00000000       0.00000000      15.00000000       0.00000000       0.00000000       0.00000000      15.00000000" Properties=species:S:1:pos:R:3:Z:I:1:map_shift:I:3:n_neighb:I:1
 O               0.00000000      0.00000000      0.00000000       8       0       0       0       2
 H               0.72414000      0.00000000      0.00000000       1       0       0       0       2
 H              -0.26309000      1.02897000      0.00000000       1       0       0       0       2
 3
 energy=2.9967402240780103 cutoff=3.81000000 nneightol=1.20000000 pbc="T T T" Lattice="15.00000000       0.00000000       0.00000000       0.00000000      15.00000000       0.00000000       0.00000000       0.00000000      15.00000000" Properties=species:S:1:pos:R:3:Z:I:1:map_shift:I:3:n_neighb:I:1
 O               0.00000000      0.00000000      0.00000000       8       0       0       0       2
 H               0.72414000      0.00000000      0.00000000       1       0       0       0       2
 H              -0.26907000      1.05236000      0.00000000       1       0       0       0       2
 3
 energy=3.1121781715611121 cutoff=3.81000000 nneightol=1.20000000 pbc="T T T" Lattice="15.00000000       0.00000000       0.00000000       0.00000000      15.00000000       0.00000000       0.00000000       0.00000000      15.00000000" Properties=species:S:1:pos:R:3:Z:I:1:map_shift:I:3:n_neighb:I:1
 O               0.00000000      0.00000000      0.00000000       8       0       0       0       2
 H               0.72414000      0.00000000      0.00000000       1       0       0       0       2
 H              -0.27505000      1.07573000      0.00000000       1       0       0       0       2
 3
 energy=3.2373113209255564 cutoff=3.81000000 nneightol=1.20000000 pbc="T T T" Lattice="15.00000000       0.00000000       0.00000000       0.00000000      15.00000000       0.00000000       0.00000000       0.00000000      15.00000000" Properties=species:S:1:pos:R:3:Z:I:1:map_shift:I:3:n_neighb:I:1
 O               0.00000000      0.00000000      0.00000000       8       0       0       0       2
 H               0.72414000      0.00000000      0.00000000       1       0       0       0       2
 H              -0.28103000      1.09912000      0.00000000       1       0       0       0       2
 3
 energy=3.3701167749782712 cutoff=3.81000000 nneightol=1.20000000 pbc="T T T" Lattice="15.00000000       0.00000000       0.00000000       0.00000000      15.00000000       0.00000000       0.00000000       0.00000000      15.00000000" Properties=species:S:1:pos:R:3:Z:I:1:map_shift:I:3:n_neighb:I:1
 O               0.00000000      0.00000000      0.00000000       8       0       0       0       2