3
Lattice="15.0 0.0 0.0 0.0 15.0 0.0 0.0 0.0 15.0" Properties=species:S:1:pos:R:3 energy=-4.2633185238 pbc="T T T"
O        0.00000000       0.00000000       0.00000000
H        0.95883000       0.00000000       0.00000000
H        0.35000000       0.60622000       0.00000000
3
Lattice="15.0 0.0 0.0 0.0 15.0 0.0 0.0 0.0 15.0" Properties=species:S:1:pos:R:3 energy=-4.3582045039 pbc="T T T"
O        0.00000000       0.00000000       0.00000000
H        0.95883000       0.00000000       0.00000000
H        0.36842000       0.63812000       0.00000000
3
Lattice="15.0 0.0 0.0 0.0 15.0 0.0 0.0 0.0 15.0" Properties=species:S:1:pos:R:3 energy=-4.2610937600 pbc="T T T"
O        0.00000000       0.00000000       0.00000000
H        0.95883000       0.00000000       0.00000000
H        0.38684000       0.67003000       0.00000000
3
Lattice="15.0 0.0 0.0 0.0 15.0 0.0 0.0 0.0 15.0" Properties=species:S:1:pos:R:3 energy=-4.0315681007 pbc="T T T"
O        0.00000000       0.00000000       0.00000000
H        0.95883000       0.00000000       0.00000000
H        0.40527000       0.70194000       0.00000000
3
Lattice="15.0 0.0 0.0 0.0 15.0 0.0 0.0 0.0 15.0" Properties=species:S:1:pos:R:3 energy=-3.7142627650 pbc="T T T"
O        0.00000000       0.00000000       0.00000000
H        0.95883000       0.00000000       0.00000000
H        0.42369000       0.73384000       0.00000000
3
Lattice="15.0 0.0 0.0 0.0 15.0 0.0 0.0 0.0 15.0" Properties=species:S:1:pos:R:3 energy=-3.3425568929 pbc="T T T"
O        0.00000000       0.00000000       0.00000000
H        0.95883000       0.00000000       0.00000000
H        0.44211000       0.76575000       0.00000000
3
Lattice="15.0 0.0 0.0 0.0 15.0 0.0 0.0 0.0 15.0" Properties=species:S:1:pos:R:3 energy=-2.9420385367 pbc="T T T"
O        0.00000000       0.00000000       0.00000000
H        0.95883000       0.00000000       0.00000000
H        0.46053000       0.79765000       0.00000000
3
Lattice="15.0 0.0 0.0 0.0 15.0 0.0 0.0 0.0 15.0" Properties=species:S:1:pos:R:3 energy=-2.5314772528 pbc="T T T"
O        0.00000000       0.00000000       0.00000000
H        0.95883000       0.00000000       0.00000000
H        0.47895000       0.82956000       0.00000000
3
Lattice="15.0 0.0 0.0 0.0 15.0 0.0 0.0 0.0 15.0" Properties=species:S:1:pos:R:3 energy=-2.1252197880 pbc="T T T"
O        0.00000000       0.00000000       0.00000000
H        0.95883000       0.00000000       0.00000000
H        0.49737000       0.86147000       0.00000000
3
Lattice="15.0 0.0 0.0 0.0 15.0 0.0 0.0 0.0 15.0" Properties=species:S:1:pos:R:3 energy=-1.7338357492 pbc="T T T"
O        0.00000000       0.00000000       0.00000000
H        0.95883000       0.00000000       0.00000000
H        0.51579000       0.89337000       0.00000000
3
Lattice="15.0 0.0 0.0 0.0 15.0 0.0 0.0 0.0 15.0" Properties=species:S:1:pos:R:3 energy=-1.3648885470 pbc="T T T"
O        0.00000000       0.00000000       0.00000000
H        0.95883000       0.00000000       0.00000000
H        0.53421000       0.92528000       0.00000000
3
Lattice="15.0 0.0 0.0 0.0 15.0 0.0 0.0 0.0 15.0" Properties=species:S:1:pos:R:3 energy=-1.0243107749 pbc="T T T"
O        0.00000000       0.00000000       0.00000000
H        0.95883000       0.00000000       0.00000000
H        0.55263000       0.95718000       0.00000000
3
Lattice="15.0 0.0 0.0 0.0 15.0 0.0 0.0 0.0 15.0" Properties=species:S:1:pos:R:3 energy=-0.7157321932 pbc="T T T"
O        0.00000000       0.00000000       0.00000000
H        0.95883000       0.00000000       0.00000000
H        0.57106000       0.98910000       0.00000000
3
Lattice="15.0 0.0 0.0 0.0 15.0 0.0 0.0 0.0 15.0" Properties=species:S:1:pos:R:3 energy=-0.4425615506 pbc="T T T"
O        0.00000000       0.00000000       0.00000000
H        0.95883000       0.00000000       0.00000000
H        0.58948000       1.02100000       0.00000000
3
Lattice="15.0 0.0 0.0 0.0 15.0 0.0 0.0 0.0 15.0" Properties=species:S:1:pos:R:3 energy=-0.2065409409 pbc="T T T"
O        0.00000000       0.00000000       0.00000000
H        0.95883000       0.00000000       0.00000000
H        0.60790000       1.05291000       0.00000000
3
Lattice="15.0 0.0 0.0 0.0 15.0 0.0 0.0 0.0 15.0" Properties=species:S:1:pos:R:3 energy=-0.0090731617 pbc="T T T"
O        0.00000000       0.00000000       0.00000000
H        0.95883000       0.00000000       0.00000000
H        0.62632000       1.08481000       0.00000000
3
Lattice="15.0 0.0 0.0 0.0 15.0 0.0 0.0 0.0 15.0" Properties=species:S:1:pos:R:3 energy=0.1489659480 pbc="T T T"
O        0.00000000       0.00000000       0.00000000
H        0.95883000       0.00000000       0.00000000
H        0.64474000       1.11671000       0.00000000
3
Lattice="15.0 0.0 0.0 0.0 15.0 0.0 0.0 0.0 15.0" Properties=species:S:1:pos:R:3 energy=0.2671030446 pbc="T T T"
O        0.00000000       0.00000000       0.00000000
H        0.95883000       0.00000000       0.00000000
H        0.66316000       1.14863000       0.00000000
3
Lattice="15.0 0.0 0.0 0.0 15.0 0.0 0.0 0.0 15.0" Properties=species:S:1:pos:R:3 energy=0.3450046330 pbc="T T T"
O        0.00000000       0.00000000       0.00000000
H        0.95883000       0.00000000       0.00000000
H        0.68158000       1.18053000       0.00000000
3
Lattice="15.0 0.0 0.0 0.0 15.0 0.0 0.0 0.0 15.0" Properties=species:S:1:pos:R:3 energy=0.3825651707 pbc="T T T"
O        0.00000000       0.00000000       0.00000000
H        0.95883000       0.00000000       0.00000000
H        0.70000000       1.21244000       0.00000000
3
Lattice="15.0 0.0 0.0 0.0 15.0 0.0 0.0 0.0 15.0" Properties=species:S:1:pos:R:3 energy=-3.2216034043 pbc="T T T"
O        0.00000000       0.00000000       0.00000000
H        0.95883000       0.00000000       0.00000000
H        0.31667000       0.62428000       0.00000000
3
Lattice="15.0 0.0 0.0 0.0 15.0 0.0 0.0 0.0 15.0" Properties=species:S:1:pos:R:3 energy=-3.3703172647 pbc="T T T"
O        0.00000000       0.00000000       0.00000000
H        0.95883000       0.00000000       0.00000000
H        0.33333000       0.65713000       0.00000000
3
Lattice="15.0 0.0 0.0 0.0 15.0 0.0 0.0 0.0 15.0" Properties=species:S:1:pos:R:3 energy=-3.3280534182 pbc="T T T"
O        0.00000000       0.00000000       0.00000000
H        0.95883000       0.00000000       0.00000000
H        0.35000000       0.68999000       0.00000000
3
Lattice="15.0 0.0 0.0 0.0 15.0 0.0 0.0 0.0 15.0" Properties=species:S:1:pos:R:3 energy=-3.1534956910 pbc="T T T"
O        0.00000000       0.00000000       0.00000000
H        0.95883000       0.00000000       0.00000000
H        0.36667000       0.72285000       0.00000000
3
Lattice="15.0 0.0 0.0 0.0 15.0 0.0 0.0 0.0 15.0" Properties=species:S:1:pos:R:3 energy=-2.8907198978 pbc="T T T"
O        0.00000000       0.00000000       0.00000000
H        0.95883000       0.00000000       0.00000000
H        0.38333000       0.75571000       0.00000000
3
Lattice="15.0 0.0 0.0 0.0 15.0 0.0 0.0 0.0 15.0" Properties=species:S:1:pos:R:3 energy=-2.5736173108 pbc="T T T"
O        0.00000000       0.00000000       0.00000000
H        0.95883000       0.00000000       0.00000000
H        0.40000000       0.78856000       0.00000000
3
Lattice="15.0 0.0 0.0 0.0 15.0 0.0 0.0 0.0 15.0" Properties=species:S:1:pos:R:3 energy=-2.2270785266 pbc="T T T"
O        0.00000000       0.00000000       0.00000000
H        0.95883000       0.00000000       0.00000000
H        0.41667000       0.82142000       0.00000000
3
Lattice="15.0 0.0 0.0 0.0 15.0 0.0 0.0 0.0 15.0" Properties=species:S:1:pos:R:3 energy=-1.8701856234 pbc="T T T"
O        0.00000000       0.00000000       0.00000000
H        0.95883000       0.00000000       0.00000000
H        0.43333000       0.85427000       0.00000000
3
Lattice="15.0 0.0 0.0 0.0 15.0 0.0 0.0 0.0 15.0" Properties=species:S:1:pos:R:3 energy=-1.5170023585 pbc="T T T"
O        0.00000000       0.00000000       0.00000000
H        0.95883000       0.00000000       0.00000000
H        0.45000000       0.88713000       0.00000000
3
Lattice="15.0 0.0 0.0 0.0 15.0 0.0 0.0 0.0 15.0" Properties=species:S:1:pos:R:3 energy=-1.1782446485 pbc="T T T"
O        0.00000000       0.00000000       0.00000000
H        0.95883000       0.00000000       0.00000000
H        0.46667000       0.91999000       0.00000000
3
Lattice="15.0 0.0 0.0 0.0 15.0 0.0 0.0 0.0 15.0" Properties=species:S:1:pos:R:3 energy=-0.8616962056 pbc="T T T"
O        0.00000000       0.00000000       0.00000000
H        0.95883000       0.00000000       0.00000000
H        0.48333000       0.95284000       0.00000000
3
Lattice="15.0 0.0 0.0 0.0 15.0 0.0 0.0 0.0 15.0" Properties=species:S:1:pos:R:3 energy=-0.5729860896 pbc="T T T"
O        0.00000000       0.00000000       0.00000000
H        0.95883000       0.00000000       0.00000000
H        0.50000000       0.98570000       0.00000000
3
Lattice="15.0 0.0 0.0 0.0 15.0 0.0 0.0 0.0 15.0" Properties=species:S:1:pos:R:3 energy=-0.3164799701 pbc="T T T"
O        0.00000000       0.00000000       0.00000000
H        0.95883000       0.00000000       0.00000000
H        0.51667000       1.01856000       0.00000000
3
Lattice="15.0 0.0 0.0 0.0 15.0 0.0 0.0 0.0 15.0" Properties=species:S:1:pos:R:3 energy=-0.0950911350 pbc="T T T"
O        0.00000000       0.00000000       0.00000000
H        0.95883000       0.00000000       0.00000000
H        0.53333000       1.05142000       0.00000000
3
Lattice="15.0 0.0 0.0 0.0 15.0 0.0 0.0 0.0 15.0" Properties=species:S:1:pos:R:3 energy=0.0888796351 pbc="T T T"
O        0.00000000       0.00000000       0.00000000
H        0.95883000       0.00000000       0.00000000
H        0.55000000       1.08427000       0.00000000
3
Lattice="15.0 0.0 0.0 0.0 15.0 0.0 0.0 0.0 15.0" Properties=species:S:1:pos:R:3 energy=0.2339817832 pbc="T T T"
O        0.00000000       0.00000000       0.00000000
H        0.95883000       0.00000000       0.00000000
H        0.56667000       1.11713000       0.00000000
3
Lattice="15.0 0.0 0.0 0.0 15.0 0.0 0.0 0.0 15.0" Properties=species:S:1:pos:R:3 energy=0.3391669192 pbc="T T T"
O        0.00000000       0.00000000       0.00000000
H        0.95883000       0.00000000       0.00000000
H        0.58333000       1.14998000       0.00000000
3
Lattice="15.0 0.0 0.0 0.0 15.0 0.0 0.0 0.0 15.0" Properties=species:S:1:pos:R:3 energy=0.4037012997 pbc="T T T"
O        0.00000000       0.00000000       0.00000000
H        0.95883000       0.00000000       0.00000000
H        0.60000000       1.18285000       0.00000000
3
Lattice="15.0 0.0 0.0 0.0 15.0 0.0 0.0 0.0 15.0" Properties=species:S:1:pos:R:3 energy=0.4269268844 pbc="T T T"
O        0.00000000       0.00000000       0.00000000
H        0.95883000       0.00000000       0.00000000
H        0.61667000       1.21570000       0.00000000
3
Lattice="15.0 0.0 0.0 0.0 15.0 0.0 0.0 0.0 15.0" Properties=species:S:1:pos:R:3 energy=0.4086010250 pbc="T T T"
O        0.00000000       0.00000000       0.00000000
H        0.95883000       0.00000000       0.00000000
H        0.63333000       1.24855000       0.00000000
3
Lattice="15.0 0.0 0.0 0.0 15.0 0.0 0.0 0.0 15.0" Properties=species:S:1:pos:R:3 energy=-2.3435422808 pbc="T T T"
O        0.00000000       0.00000000       0.00000000
H        0.95883000       0.00000000       0.00000000
H        0.28240000       0.64051000       0.00000000
3
Lattice="15.0 0.0 0.0 0.0 15.0 0.0 0.0 0.0 15.0" Properties=species:S:1:pos:R:3 energy=-2.5451108628 pbc="T T T"
O        0.00000000       0.00000000       0.00000000
H        0.95883000       0.00000000       0.00000000
H        0.29727000       0.67421000       0.00000000
3
Lattice="15.0 0.0 0.0 0.0 15.0 0.0 0.0 0.0 15.0" Properties=species:S:1:pos:R:3 energy=-2.5556535125 pbc="T T T"
O        0.00000000       0.00000000       0.00000000
H        0.95883000       0.00000000       0.00000000
H        0.31213000       0.70792000       0.00000000
3
Lattice="15.0 0.0 0.0 0.0 15.0 0.0 0.0 0.0 15.0" Properties=species:S:1:pos:R:3 energy=-2.4336753613 pbc="T T T"
O        0.00000000       0.00000000       0.00000000
H        0.95883000       0.00000000       0.00000000
H        0.32700000       0.74164000       0.00000000
3
Lattice="15.0 0.0 0.0 0.0 15.0 0.0 0.0 0.0 15.0" Properties=species:S:1:pos:R:3 energy=-2.2232971967 pbc="T T T"
O        0.00000000       0.00000000       0.00000000
H        0.95883000       0.00000000       0.00000000
H        0.34186000       0.77535000       0.00000000
3
Lattice="15.0 0.0 0.0 0.0 15.0 0.0 0.0 0.0 15.0" Properties=species:S:1:pos:R:3 energy=-1.9579085508 pbc="T T T"
O        0.00000000       0.00000000       0.00000000
H        0.95883000       0.00000000       0.00000000
H        0.35672000       0.80906000       0.00000000
3
Lattice="15.0 0.0 0.0 0.0 15.0 0.0 0.0 0.0 15.0" Properties=species:S:1:pos:R:3 energy=-1.6625658148 pbc="T T T"
O        0.00000000       0.00000000       0.00000000
H        0.95883000       0.00000000       0.00000000
H        0.37158000       0.84277000       0.00000000
3
Lattice="15.0 0.0 0.0 0.0 15.0 0.0 0.0 0.0 15.0" Properties=species:S:1:pos:R:3 energy=-1.3563148175 pbc="T T T"
O        0.00000000       0.00000000       0.00000000
H        0.95883000       0.00000000       0.00000000
H        0.38645000       0.87648000       0.00000000
3
Lattice="15.0 0.0 0.0 0.0 15.0 0.0 0.0 0.0 15.0" Properties=species:S:1:pos:R:3 energy=-1.0531505400 pbc="T T T"
O        0.00000000       0.00000000       0.00000000
H        0.95883000       0.00000000       0.00000000
H        0.40131000       0.91020000       0.00000000
3
Lattice="15.0 0.0 0.0 0.0 15.0 0.0 0.0 0.0 15.0" Properties=species:S:1:pos:R:3 energy=-0.7640235536 pbc="T T T"
O        0.00000000       0.00000000       0.00000000
H        0.95883000       0.00000000       0.00000000
H        0.41618000       0.94390000       0.00000000
3
Lattice="15.0 0.0 0.0 0.0 15.0 0.0 0.0 0.0 15.0" Properties=species:S:1:pos:R:3 energy=-0.4965519591 pbc="T T T"
O        0.00000000       0.00000000       0.00000000
H        0.95883000       0.00000000       0.00000000
H        0.43104000       0.97761000       0.00000000
3
Lattice="15.0 0.0 0.0 0.0 15.0 0.0 0.0 0.0 15.0" Properties=species:S:1:pos:R:3 energy=-0.2567416275 pbc="T T T"
O        0.00000000       0.00000000       0.00000000
H        0.95883000       0.00000000       0.00000000
H        0.44590000       1.01132000       0.00000000
3
Lattice="15.0 0.0 0.0 0.0 15.0 0.0 0.0 0.0 15.0" Properties=species:S:1:pos:R:3 energy=-0.0488576473 pbc="T T T"
O        0.00000000       0.00000000       0.00000000
H        0.95883000       0.00000000       0.00000000
H        0.46077000       1.04504000       0.00000000
3
Lattice="15.0 0.0 0.0 0.0 15.0 0.0 0.0 0.0 15.0" Properties=species:S:1:pos:R:3 energy=0.1236923751 pbc="T T T"
O        0.00000000       0.00000000       0.00000000
H        0.95883000       0.00000000       0.00000000
H        0.47563000       1.07875000       0.00000000
3
Lattice="15.0 0.0 0.0 0.0 15.0 0.0 0.0 0.0 15.0" Properties=species:S:1:pos:R:3 energy=0.2586438761 pbc="T T T"
O        0.00000000       0.00000000       0.00000000
H        0.95883000       0.00000000       0.00000000
H        0.49049000       1.11246000       0.00000000
3
Lattice="15.0 0.0 0.0 0.0 15.0 0.0 0.0 0.0 15.0" Properties=species:S:1:pos:R:3 energy=0.3542500427 pbc="T T T"
O        0.00000000       0.00000000       0.00000000
H        0.95883000       0.00000000       0.00000000
H        0.50535000       1.14617000       0.00000000
3
Lattice="15.0 0.0 0.0 0.0 15.0 0.0 0.0 0.0 15.0" Properties=species:S:1:pos:R:3 energy=0.4090952845 pbc="T T T"
O        0.00000000       0.00000000       0.00000000
H        0.95883000       0.00000000       0.00000000
H        0.52022000       1.17988000       0.00000000
3
Lattice="15.0 0.0 0.0 0.0 15.0 0.0 0.0 0.0 15.0" Properties=species:S:1:pos:R:3 energy=0.4222167123 pbc="T T T"
O        0.00000000       0.00000000       0.00000000
H        0.95883000       0.00000000       0.00000000
H        0.53508000       1.21359000       0.00000000
3
Lattice="15.0 0.0 0.0 0.0 15.0 0.0 0.0 0.0 15.0" Properties=species:S:1:pos:R:3 energy=0.3927280759 pbc="T T T"
O        0.00000000       0.00000000       0.00000000
H        0.95883000       0.00000000       0.00000000
H        0.54995000       1.24730000       0.00000000
3
Lattice="15.0 0.0 0.0 0.0 15.0 0.0 0.0 0.0 15.0" Properties=species:S:1:pos:R:3 energy=0.3197696355 pbc="T T T"
O        0.00000000       0.00000000       0.00000000
H        0.95883000       0.00000000       0.00000000
H        0.56481000       1.28101000       0.00000000
3
Lattice="15.0 0.0 0.0 0.0 15.0 0.0 0.0 0.0 15.0" Properties=species:S:1:pos:R:3 energy=-1.6067419331 pbc="T T T"
O        0.00000000       0.00000000       0.00000000
H        0.95883000       0.00000000       0.00000000
H        0.24731000       0.65486000       0.00000000
3
Lattice="15.0 0.0 0.0 0.0 15.0 0.0 0.0 0.0 15.0" Properties=species:S:1:pos:R:3 energy=-1.8584083177 pbc="T T T"
O        0.00000000       0.00000000       0.00000000
H        0.95883000       0.00000000       0.00000000
H        0.26033000       0.68932000       0.00000000
3
Lattice="15.0 0.0 0.0 0.0 15.0 0.0 0.0 0.0 15.0" Properties=species:S:1:pos:R:3 energy=-1.9190381232 pbc="T T T"
O        0.00000000       0.00000000       0.00000000
H        0.95883000       0.00000000       0.00000000
H        0.27335000       0.72378000       0.00000000
3
Lattice="15.0 0.0 0.0 0.0 15.0 0.0 0.0 0.0 15.0" Properties=species:S:1:pos:R:3 energy=-1.8467436377 pbc="T T T"
O        0.00000000       0.00000000       0.00000000
H        0.95883000       0.00000000       0.00000000
H        0.28637000       0.75826000       0.00000000
3
Lattice="15.0 0.0 0.0 0.0 15.0 0.0 0.0 0.0 15.0" Properties=species:S:1:pos:R:3 energy=-1.6856016964 pbc="T T T"
O        0.00000000       0.00000000       0.00000000
H        0.95883000       0.00000000       0.00000000
H        0.29938000       0.79272000       0.00000000
3
Lattice="15.0 0.0 0.0 0.0 15.0 0.0 0.0 0.0 15.0" Properties=species:S:1:pos:R:3 energy=-1.4687403072 pbc="T T T"
O        0.00000000       0.00000000       0.00000000
H        0.95883000       0.00000000       0.00000000
H        0.31240000       0.82719000       0.00000000
3
Lattice="15.0 0.0 0.0 0.0 15.0 0.0 0.0 0.0 15.0" Properties=species:S:1:pos:R:3 energy=-1.2213531565 pbc="T T T"
O        0.00000000       0.00000000       0.00000000
H        0.95883000       0.00000000       0.00000000
H        0.32541000       0.86165000       0.00000000
3
Lattice="15.0 0.0 0.0 0.0 15.0 0.0 0.0 0.0 15.0" Properties=species:S:1:pos:R:3 energy=-0.9623391114 pbc="T T T"
O        0.00000000       0.00000000       0.00000000
H        0.95883000       0.00000000       0.00000000
H        0.33843000       0.89611000       0.00000000
3
Lattice="15.0 0.0 0.0 0.0 15.0 0.0 0.0 0.0 15.0" Properties=species:S:1:pos:R:3 energy=-0.7057205726 pbc="T T T"
O        0.00000000       0.00000000       0.00000000
H        0.95883000       0.00000000       0.00000000
H        0.35145000       0.93059000       0.00000000
3
Lattice="15.0 0.0 0.0 0.0 15.0 0.0 0.0 0.0 15.0" Properties=species:S:1:pos:R:3 energy=-0.4625934872 pbc="T T T"
O        0.00000000       0.00000000       0.00000000
H        0.95883000       0.00000000       0.00000000
H        0.36446000       0.96505000       0.00000000
3
Lattice="15.0 0.0 0.0 0.0 15.0 0.0 0.0 0.0 15.0" Properties=species:S:1:pos:R:3 energy=-0.2407661462 pbc="T T T"
O        0.00000000       0.00000000       0.00000000
H        0.95883000       0.00000000       0.00000000
H        0.37748000       0.99952000       0.00000000
3
Lattice="15.0 0.0 0.0 0.0 15.0 0.0 0.0 0.0 15.0" Properties=species:S:1:pos:R:3 energy=-0.0464251079 pbc="T T T"
O        0.00000000       0.00000000       0.00000000
H        0.95883000       0.00000000       0.00000000
H        0.39050000       1.03398000       0.00000000
3
Lattice="15.0 0.0 0.0 0.0 15.0 0.0 0.0 0.0 15.0" Properties=species:S:1:pos:R:3 energy=0.1159625712 pbc="T T T"
O        0.00000000       0.00000000       0.00000000
H        0.95883000       0.00000000       0.00000000
H        0.40351000       1.06845000       0.00000000
3
Lattice="15.0 0.0 0.0 0.0 15.0 0.0 0.0 0.0 15.0" Properties=species:S:1:pos:R:3 energy=0.2429232689 pbc="T T T"
O        0.00000000       0.00000000       0.00000000
H        0.95883000       0.00000000       0.00000000
H        0.41653000       1.10292000       0.00000000
3
Lattice="15.0 0.0 0.0 0.0 15.0 0.0 0.0 0.0 15.0" Properties=species:S:1:pos:R:3 energy=0.3317742765 pbc="T T T"
O        0.00000000       0.00000000       0.00000000
H        0.95883000       0.00000000       0.00000000
H        0.42955000       1.13738000       0.00000000
3
Lattice="15.0 0.0 0.0 0.0 15.0 0.0 0.0 0.0 15.0" Properties=species:S:1:pos:R:3 energy=0.3804860846 pbc="T T T"
O        0.00000000       0.00000000       0.00000000
H        0.95883000       0.00000000       0.00000000
H        0.44256000       1.17185000       0.00000000
3
Lattice="15.0 0.0 0.0 0.0 15.0 0.0 0.0 0.0 15.0" Properties=species:S:1:pos:R:3 energy=0.3874256784 pbc="T T T"
O        0.00000000       0.00000000       0.00000000
H        0.95883000       0.00000000       0.00000000
H        0.45558000       1.20631000       0.00000000
3
Lattice="15.0 0.0 0.0 0.0 15.0 0.0 0.0 0.0 15.0" Properties=species:S:1:pos:R:3 energy=0.3511032650 pbc="T T T"
O        0.00000000       0.00000000       0.00000000
H        0.95883000       0.00000000       0.00000000
H        0.46860000       1.24078000       0.00000000
3
Lattice="15.0 0.0 0.0 0.0 15.0 0.0 0.0 0.0 15.0" Properties=species:S:1:pos:R:3 energy=0.2702486533 pbc="T T T"
O        0.00000000       0.00000000       0.00000000
H        0.95883000       0.00000000       0.00000000
H        0.48161000       1.27525000       0.00000000
3
Lattice="15.0 0.0 0.0 0.0 15.0 0.0 0.0 0.0 15.0" Properties=species:S:1:pos:R:3 energy=0.1436981881 pbc="T T T"
O        0.00000000       0.00000000       0.00000000
H        0.95883000       0.00000000       0.00000000
H        0.49463000       1.30971000       0.00000000
3
Lattice="15.0 0.0 0.0 0.0 15.0 0.0 0.0 0.0 15.0" Properties=species:S:1:pos:R:3 energy=-0.9909705528 pbc="T T T"
O        0.00000000       0.00000000       0.00000000
H        0.95883000       0.00000000       0.00000000
H        0.21150000       0.66728000       0.00000000
3
Lattice="15.0 0.0 0.0 0.0 15.0 0.0 0.0 0.0 15.0" Properties=species:S:1:pos:R:3 energy=-1.2895909544 pbc="T T T"
O        0.00000000       0.00000000       0.00000000
H        0.95883000       0.00000000       0.00000000
H        0.22263000       0.70240000       0.00000000
3
Lattice="15.0 0.0 0.0 0.0 15.0 0.0 0.0 0.0 15.0" Properties=species:S:1:pos:R:3 energy=-1.3969992031 pbc="T T T"
O        0.00000000       0.00000000       0.00000000
H        0.95883000       0.00000000       0.00000000
H        0.23376000       0.73752000       0.00000000
3
Lattice="15.0 0.0 0.0 0.0 15.0 0.0 0.0 0.0 15.0" Properties=species:S:1:pos:R:3 energy=-1.3710388614 pbc="T T T"
O        0.00000000       0.00000000       0.00000000
H        0.95883000       0.00000000       0.00000000
H        0.24489000       0.77265000       0.00000000
3
Lattice="15.0 0.0 0.0 0.0 15.0 0.0 0.0 0.0 15.0" Properties=species:S:1:pos:R:3 energy=-1.2555210352 pbc="T T T"
O        0.00000000       0.00000000       0.00000000
H        0.95883000       0.00000000       0.00000000
H        0.25602000       0.80777000       0.00000000
3
Lattice="15.0 0.0 0.0 0.0 15.0 0.0 0.0 0.0 15.0" Properties=species:S:1:pos:R:3 energy=-1.0836969345 pbc="T T T"
O        0.00000000       0.00000000       0.00000000
H        0.95883000       0.00000000       0.00000000
H        0.26716000       0.84289000       0.00000000
3
Lattice="15.0 0.0 0.0 0.0 15.0 0.0 0.0 0.0 15.0" Properties=species:S:1:pos:R:3 energy=-0.8805201094 pbc="T T T"
O        0.00000000       0.00000000       0.00000000
H        0.95883000       0.00000000       0.00000000
H        0.27829000       0.87800000       0.00000000
3
Lattice="15.0 0.0 0.0 0.0 15.0 0.0 0.0 0.0 15.0" Properties=species:S:1:pos:R:3 energy=-0.6649140422 pbc="T T T"
O        0.00000000       0.00000000       0.00000000
H        0.95883000       0.00000000       0.00000000
H        0.28942000       0.91312000       0.00000000
3
Lattice="15.0 0.0 0.0 0.0 15.0 0.0 0.0 0.0 15.0" Properties=species:S:1:pos:R:3 energy=-0.4512413198 pbc="T T T"
O        0.00000000       0.00000000       0.00000000
H        0.95883000       0.00000000       0.00000000
H        0.30055000       0.94825000       0.00000000
3
Lattice="15.0 0.0 0.0 0.0 15.0 0.0 0.0 0.0 15.0" Properties=species:S:1:pos:R:3 energy=-0.2504605521 pbc="T T T"
O        0.00000000       0.00000000       0.00000000
H        0.95883000       0.00000000       0.00000000
H        0.31168000       0.98337000       0.00000000
3
Lattice="15.0 0.0 0.0 0.0 15.0 0.0 0.0 0.0 15.0" Properties=species:S:1:pos:R:3 energy=-0.0707609022 pbc="T T T"
O        0.00000000       0.00000000       0.00000000
H        0.95883000       0.00000000       0.00000000
H        0.32281000       1.01849000       0.00000000
3
Lattice="15.0 0.0 0.0 0.0 15.0 0.0 0.0 0.0 15.0" Properties=species:S:1:pos:R:3 energy=0.0815662902 pbc="T T T"
O        0.00000000       0.00000000       0.00000000
H        0.95883000       0.00000000       0.00000000
H        0.33394000       1.05360000       0.00000000
3
Lattice="15.0 0.0 0.0 0.0 15.0 0.0 0.0 0.0 15.0" Properties=species:S:1:pos:R:3 energy=0.2018620938 pbc="T T T"
O        0.00000000       0.00000000       0.00000000
H        0.95883000       0.00000000       0.00000000
H        0.34508000       1.08873000       0.00000000
3
Lattice="15.0 0.0 0.0 0.0 15.0 0.0 0.0 0.0 15.0" Properties=species:S:1:pos:R:3 energy=0.2862683346 pbc="T T T"
O        0.00000000       0.00000000       0.00000000
H        0.95883000       0.00000000       0.00000000
H        0.35621000       1.12385000       0.00000000
3
Lattice="15.0 0.0 0.0 0.0 15.0 0.0 0.0 0.0 15.0" Properties=species:S:1:pos:R:3 energy=0.3318830556 pbc="T T T"
O        0.00000000       0.00000000       0.00000000
H        0.95883000       0.00000000       0.00000000
H        0.36734000       1.15897000       0.00000000
3
Lattice="15.0 0.0 0.0 0.0 15.0 0.0 0.0 0.0 15.0" Properties=species:S:1:pos:R:3 energy=0.3363135260 pbc="T T T"
O        0.00000000       0.00000000       0.00000000
H        0.95883000       0.00000000       0.00000000
H        0.37847000       1.19409000       0.00000000
3
Lattice="15.0 0.0 0.0 0.0 15.0 0.0 0.0 0.0 15.0" Properties=species:S:1:pos:R:3 energy=0.2974730839 pbc="T T T"
O        0.00000000       0.00000000       0.00000000
H        0.95883000       0.00000000       0.00000000
H        0.38960000       1.22920000       0.00000000
3
Lattice="15.0 0.0 0.0 0.0 15.0 0.0 0.0 0.0 15.0" Properties=species:S:1:pos:R:3 energy=0.2134833356 pbc="T T T"
O        0.00000000       0.00000000       0.00000000
H        0.95883000       0.00000000       0.00000000
H        0.40073000       1.26433000       0.00000000
3
Lattice="15.0 0.0 0.0 0.0 15.0 0.0 0.0 0.0 15.0" Properties=species:S:1:pos:R:3 energy=0.0826177255 pbc="T T T"
O        0.00000000       0.00000000       0.00000000
H        0.95883000       0.00000000       0.00000000
H        0.41187000       1.29945000       0.00000000
3
Lattice="15.0 0.0 0.0 0.0 15.0 0.0 0.0 0.0 15.0" Properties=species:S:1:pos:R:3 energy=-0.0970105323 pbc="T T T"
O        0.00000000       0.00000000       0.00000000
H        0.95883000       0.00000000       0.00000000
H        0.42300000       1.33457000       0.00000000
3
Lattice="15.0 0.0 0.0 0.0 15.0 0.0 0.0 0.0 15.0" Properties=species:S:1:pos:R:3 energy=-0.4786102486 pbc="T T T"
O        0.00000000       0.00000000       0.00000000
H        0.95883000       0.00000000       0.00000000
H        0.17506000       0.67776000       0.00000000
3
Lattice="15.0 0.0 0.0 0.0 15.0 0.0 0.0 0.0 15.0" Properties=species:S:1:pos:R:3 energy=-0.8209433614 pbc="T T T"
O        0.00000000       0.00000000       0.00000000
H        0.95883000       0.00000000       0.00000000
H        0.18428000       0.71343000       0.00000000
3
Lattice="15.0 0.0 0.0 0.0 15.0 0.0 0.0 0.0 15.0" Properties=species:S:1:pos:R:3 energy=-0.9715207630 pbc="T T T"
O        0.00000000       0.00000000       0.00000000
H        0.95883000       0.00000000       0.00000000
H        0.19349000       0.74909000       0.00000000
3
Lattice="15.0 0.0 0.0 0.0 15.0 0.0 0.0 0.0 15.0" Properties=species:S:1:pos:R:3 energy=-0.9880962234 pbc="T T T"
O        0.00000000       0.00000000       0.00000000
H        0.95883000       0.00000000       0.00000000
H        0.20270000       0.78477000       0.00000000
3
Lattice="15.0 0.0 0.0 0.0 15.0 0.0 0.0 0.0 15.0" Properties=species:S:1:pos:R:3 energy=-0.9145446790 pbc="T T T"
O        0.00000000       0.00000000       0.00000000
H        0.95883000       0.00000000       0.00000000
H        0.21192000       0.82044000       0.00000000
3
Lattice="15.0 0.0 0.0 0.0 15.0 0.0 0.0 0.0 15.0" Properties=species:S:1:pos:R:3 energy=-0.7837013417 pbc="T T T"
O        0.00000000       0.00000000       0.00000000
H        0.95883000       0.00000000       0.00000000
H        0.22113000       0.85611000       0.00000000
3
Lattice="15.0 0.0 0.0 0.0 15.0 0.0 0.0 0.0 15.0" Properties=species:S:1:pos:R:3 energy=-0.6207753467 pbc="T T T"
O        0.00000000       0.00000000       0.00000000
H        0.95883000       0.00000000       0.00000000
H        0.23034000       0.89178000       0.00000000
3
Lattice="15.0 0.0 0.0 0.0 15.0 0.0 0.0 0.0 15.0" Properties=species:S:1:pos:R:3 energy=-0.4448387356 pbc="T T T"
O        0.00000000       0.00000000       0.00000000
H        0.95883000       0.00000000       0.00000000
H        0.23956000       0.92745000       0.00000000
3
Lattice="15.0 0.0 0.0 0.0 15.0 0.0 0.0 0.0 15.0" Properties=species:S:1:pos:R:3 energy=-0.2702266565 pbc="T T T"