3
Lattice="15.0 0.0 0.0 0.0 15.0 0.0 0.0 0.0 15.0" Properties=species:S:1:pos:R:3 energy=-75.7853668310 pbc="T T T"
O        0.01422186       0.01832353       0.00000000
H        0.63057933       0.02188837       0.00000000
H       -0.13497659       0.61624955       0.00000000
3
Lattice="15.0 0.0 0.0 0.0 15.0 0.0 0.0 0.0 15.0" Properties=species:S:1:pos:R:3 energy=-75.9559826874 pbc="T T T"
O        0.01264165       0.01628758       0.00000000
H        0.66705180       0.01945633       0.00000000
H       -0.14637007       0.65099376       0.00000000
3
Lattice="15.0 0.0 0.0 0.0 15.0 0.0 0.0 0.0 15.0" Properties=species:S:1:pos:R:3 energy=-76.0831920736 pbc="T T T"
O        0.01106144       0.01425164       0.00000000
H        0.70352428       0.01702429       0.00000000
H       -0.15776356       0.68573797       0.00000000
3
Lattice="15.0 0.0 0.0 0.0 15.0 0.0 0.0 0.0 15.0" Properties=species:S:1:pos:R:3 energy=-76.1769144957 pbc="T T T"
O        0.00948124       0.01221569       0.00000000
H        0.73999676       0.01459225       0.00000000
H       -0.16915705       0.72048218       0.00000000
3
Lattice="15.0 0.0 0.0 0.0 15.0 0.0 0.0 0.0 15.0" Properties=species:S:1:pos:R:3 energy=-76.2447002490 pbc="T T T"
O        0.00790103       0.01017974       0.00000000
H        0.77646924       0.01216020       0.00000000
H       -0.18055054       0.75522638       0.00000000
3
Lattice="15.0 0.0 0.0 0.0 15.0 0.0 0.0 0.0 15.0" Properties=species:S:1:pos:R:3 energy=-76.2923424588 pbc="T T T"
O        0.00632083       0.00814379       0.00000000
H        0.81294172       0.00972816       0.00000000
H       -0.19194402       0.78997059       0.00000000
3
Lattice="15.0 0.0 0.0 0.0 15.0 0.0 0.0 0.0 15.0" Properties=species:S:1:pos:R:3 energy=-76.3243202011 pbc="T T T"
O        0.00474062       0.00610784       0.00000000
H        0.84941420       0.00729612       0.00000000
H       -0.20333751       0.82471480       0.00000000
3
Lattice="15.0 0.0 0.0 0.0 15.0 0.0 0.0 0.0 15.0" Properties=species:S:1:pos:R:3 energy=-76.3441209086 pbc="T T T"
O        0.00316041       0.00407190       0.00000000
H        0.88588667       0.00486408       0.00000000
H       -0.21473100       0.85945901       0.00000000
3
Lattice="15.0 0.0 0.0 0.0 15.0 0.0 0.0 0.0 15.0" Properties=species:S:1:pos:R:3 energy=-76.3544754638 pbc="T T T"
O        0.00158021       0.00203595       0.00000000
H        0.92235915       0.00243204       0.00000000
H       -0.22612448       0.89420321       0.00000000
3
Lattice="15.0 0.0 0.0 0.0 15.0 0.0 0.0 0.0 15.0" Properties=species:S:1:pos:R:3 energy=-76.3575310289 pbc="T T T"
O        0.00000000       0.00000000       0.00000000
H        0.95883163       0.00000000       0.00000000
H       -0.23751797       0.92894742       0.00000000
3
Lattice="15.0 0.0 0.0 0.0 15.0 0.0 0.0 0.0 15.0" Properties=species:S:1:pos:R:3 energy=-76.3549806234 pbc="T T T"
O       -0.00158021      -0.00203595       0.00000000
H        0.99530411      -0.00243204       0.00000000
H       -0.24891146       0.96369163       0.00000000
3
Lattice="15.0 0.0 0.0 0.0 15.0 0.0 0.0 0.0 15.0" Properties=species:S:1:pos:R:3 energy=-76.3481624705 pbc="T T T"
O       -0.00316041      -0.00407190       0.00000000
H        1.03177659      -0.00486408       0.00000000
H       -0.26030494       0.99843584       0.00000000
3
Lattice="15.0 0.0 0.0 0.0 15.0 0.0 0.0 0.0 15.0" Properties=species:S:1:pos:R:3 energy=-76.3381371443 pbc="T T T"
O       -0.00474062      -0.00610784       0.00000000
H        1.06824907      -0.00729612       0.00000000
H       -0.27169843       1.03318004       0.00000000
3
Lattice="15.0 0.0 0.0 0.0 15.0 0.0 0.0 0.0 15.0" Properties=species:S:1:pos:R:3 energy=-76.3257473769 pbc="T T T"
O       -0.00632083      -0.00814379       0.00000000
H        1.10472154      -0.00972816       0.00000000
H       -0.28309192       1.06792425       0.00000000
3
Lattice="15.0 0.0 0.0 0.0 15.0 0.0 0.0 0.0 15.0" Properties=species:S:1:pos:R:3 energy=-76.3116640018 pbc="T T T"
O       -0.00790103      -0.01017974       0.00000000
H        1.14119402      -0.01216020       0.00000000
H       -0.29448540       1.10266846       0.00000000
3
Lattice="15.0 0.0 0.0 0.0 15.0 0.0 0.0 0.0 15.0" Properties=species:S:1:pos:R:3 energy=-76.2964211370 pbc="T T T"
O       -0.00948124      -0.01221569       0.00000000
H        1.17766650      -0.01459225       0.00000000
H       -0.30587889       1.13741267       0.00000000
3
Lattice="15.0 0.0 0.0 0.0 15.0 0.0 0.0 0.0 15.0" Properties=species:S:1:pos:R:3 energy=-76.2804434009 pbc="T T T"
O       -0.01106144      -0.01425164       0.00000000
H        1.21413898      -0.01702429       0.00000000
H       -0.31727238       1.17215687       0.00000000
3
Lattice="15.0 0.0 0.0 0.0 15.0 0.0 0.0 0.0 15.0" Properties=species:S:1:pos:R:3 energy=-76.2640673663 pbc="T T T"
O       -0.01264165      -0.01628758       0.00000000
H        1.25061146      -0.01945633       0.00000000
H       -0.32866586       1.20690108       0.00000000
