 3
 energy=3.6667784474280243 cutoff=3.72000000 nneightol=1.20000000 pbc="T T T" Lattice="15.00000000       0.00000000       0.00000000       0.00000000      15.00000000       0.00000000       0.00000000       0.00000000      15.00000000" Properties=species:S:1:pos:R:3:Z:I:1:map_shift:I:3:n_neighb:I:1
 O               0.00000000      0.00000000      0.00000000       8       0       0       0       2
 H               0.95883000      0.00000000      0.00000000       1       0       0       0       2
 H               0.35000000      0.60622000      0.00000000       1       0       0       0       2
 3
 energy=3.1230880802115450 cutoff=3.72000000 nneightol=1.20000000 pbc="T T T" Lattice="15.00000000       0.00000000       0.00000000       0.00000000      15.00000000       0.00000000       0.00000000       0.00000000      15.00000000" Properties=species:S:1:pos:R:3:Z:I:1:map_shift:I:3:n_neighb:I:1
 O               0.00000000      0.00000000      0.00000000       8       0       0       0       2
 H               0.95883000      0.00000000      0.00000000       1       0       0       0       2
 H               0.36842000      0.63812000      0.00000000       1       0       0       0       2
 3
 energy=2.6577487261559547 cutoff=3.72000000 nneightol=1.20000000 pbc="T T T" Lattice="15.00000000       0.00000000       0.00000000       0.00000000      15.00000000       0.00000000       0.00000000       0.00000000      15.00000000" Properties=species:S:1:pos:R:3:Z:I:1:map_shift:I:3:n_neighb:I:1
 O               0.00000000      0.00000000      0.00000000       8       0       0       0       2
 H               0.95883000      0.00000000      0.00000000       1       0       0       0       2
 H               0.38684000      0.67003000      0.00000000       1       0       0       0       2
 3
 energy=2.2758663485519790 cutoff=3.72000000 nneightol=1.20000000 pbc="T T T" Lattice="15.00000000       0.00000000       0.00000000       0.00000000      15.00000000       0.00000000       0.00000000       0.00000000      15.00000000" Properties=species:S:1:pos:R:3:Z:I:1:map_shift:I:3:n_neighb:I:1
 O               0.00000000      0.00000000      0.00000000       8       0       0       0       2
 H               0.95883000      0.00000000      0.00000000       1       0       0       0       2
 H               0.40527000      0.70194000      0.00000000       1       0       0       0       2
 3
 energy=1.9791681393580838 cutoff=3.72000000 nneightol=1.20000000 pbc="T T T" Lattice="15.00000000       0.00000000       0.00000000       0.00000000      15.00000000       0.00000000       0.00000000       0.00000000      15.00000000" Properties=species:S:1:pos:R:3:Z:I:1:map_shift:I:3:n_neighb:I:1
 O               0.00000000      0.00000000      0.00000000       8       0       0       0       2
 H               0.95883000      0.00000000      0.00000000       1       0       0       0       2
 H               0.42369000      0.73384000      0.00000000       1       0       0       0       2
 3
 energy=1.7651844706017528 cutoff=3.72000000 nneightol=1.20000000 pbc="T T T" Lattice="15.00000000       0.00000000       0.00000000       0.00000000      15.00000000       0.00000000       0.00000000       0.00000000      15.00000000" Properties=species:S:1:pos:R:3:Z:I:1:map_shift:I:3:n_neighb:I:1
 O               0.00000000      0.00000000      0.00000000       8       0       0       0       2
 H               0.95883000      0.00000000      0.00000000       1       0       0       0       2
 H               0.44211000      0.76575000      0.00000000       1       0       0       0       2
 3
 energy=1.6278713739933401 cutoff=3.72000000 nneightol=1.20000000 pbc="T T T" Lattice="15.00000000       0.00000000       0.00000000       0.00000000      15.00000000       0.00000000       0.00000000       0.00000000      15.00000000" Properties=species:S:1:pos:R:3:Z:I:1:map_shift:I:3:n_neighb:I:1
 O               0.00000000      0.00000000      0.00000000       8       0       0       0       2
 H               0.95883000      0.00000000      0.00000000       1       0       0       0       2
 H               0.46053000      0.79765000      0.00000000       1       0       0       0       2
 3
 energy=1.5576209827025913 cutoff=3.72000000 nneightol=1.20000000 pbc="T T T" Lattice="15.00000000       0.00000000       0.00000000       0.00000000      15.00000000       0.00000000       0.00000000       0.00000000      15.00000000" Properties=species:S:1:pos:R:3:Z:I:1:map_shift:I:3:n_neighb:I:1
 O               0.00000000      0.00000000      0.00000000       8       0       0       0       2
 H               0.95883000      0.00000000      0.00000000       1       0       0       0       2
 H               0.47895000      0.82956000      0.00000000       1       0       0       0       2
 3
 energy=1.5428689618456275 cutoff=3.72000000 nneightol=1.20000000 pbc="T T T" Lattice="15.00000000       0.00000000       0.00000000       0.00000000      15.00000000       0.00000000       0.00000000       0.00000000      15.00000000" Properties=species:S:1:pos:R:3:Z:I:1:map_shift:I:3:n_neighb:I:1
 O               0.00000000      0.00000000      0.00000000       8       0       0       0       2
 H               0.95883000      0.00000000      0.00000000       1       0       0       0       2
 H               0.49737000      0.86147000      0.00000000       1       0       0       0       2
 3
 energy=1.5714698740630659 cutoff=3.72000000 nneightol=1.20000000 pbc="T T T" Lattice="15.00000000       0.00000000       0.00000000       0.00000000      15.00000000       0.00000000       0.00000000       0.00000000      15.00000000" Properties=species:S:1:pos:R:3:Z:I:1:map_shift:I:3:n_neighb:I:1
 O               0.00000000      0.00000000      0.00000000       8       0       0       0       2
 H               0.95883000      0.00000000      0.00000000       1       0       0       0       2
 H               0.51579000      0.89337000      0.00000000       1       0       0       0       2
 3
 energy=1.6322898745785643 cutoff=3.72000000 nneightol=1.20000000 pbc="T T T" Lattice="15.00000000       0.00000000       0.00000000       0.00000000      15.00000000       0.00000000       0.00000000       0.00000000      15.00000000" Properties=species:S:1:pos:R:3:Z:I:1:map_shift:I:3:n_neighb:I:1
 O               0.00000000      0.00000000      0.00000000       8       0       0       0       2
 H               0.95883000      0.00000000      0.00000000       1       0       0       0       2
 H               0.53421000      0.92528000      0.00000000       1       0       0       0       2
 3
 energy=1.7164641777510212 cutoff=3.72000000 nneightol=1.20000000 pbc="T T T" Lattice="15.00000000       0.00000000       0.00000000       0.00000000      15.00000000       0.00000000       0.00000000       0.00000000      15.00000000" Properties=species:S:1:pos:R:3:Z:I:1:map_shift:I:3:n_neighb:I:1
 O               0.00000000      0.00000000      0.00000000       8       0       0       0       2
 H               0.95883000      0.00000000      0.00000000       1       0       0       0       2
 H               0.55263000      0.95718000      0.00000000       1       0       0       0       2
 3
 energy=1.8180512859850957 cutoff=3.72000000 nneightol=1.20000000 pbc="T T T" Lattice="15.00000000       0.00000000       0.00000000       0.00000000      15.00000000       0.00000000       0.00000000       0.00000000      15.00000000" Properties=species:S:1:pos:R:3:Z:I:1:map_shift:I:3:n_neighb:I:1
 O               0.00000000      0.00000000      0.00000000       8       0       0       0       2
 H               0.95883000      0.00000000      0.00000000       1       0       0       0       2
 H               0.57106000      0.98910000      0.00000000       1       0       0       0       2
 3
 energy=1.9338385700019032 cutoff=3.72000000 nneightol=1.20000000 pbc="T T T" Lattice="15.00000000       0.00000000       0.00000000       0.00000000      15.00000000       0.00000000       0.00000000       0.00000000      15.00000000" Properties=species:S:1:pos:R:3:Z:I:1:map_shift:I:3:n_neighb:I:1
 O               0.00000000      0.00000000      0.00000000       8       0       0       0       2
 H               0.95883000      0.00000000      0.00000000       1       0       0       0       2
 H               0.58948000      1.02100000      0.00000000       1       0       0       0       2
 3
 energy=2.0632282845016938 cutoff=3.72000000 nneightol=1.20000000 pbc="T T T" Lattice="15.00000000       0.00000000       0.00000000       0.00000000      15.00000000       0.00000000       0.00000000       0.00000000      15.00000000" Properties=species:S:1:pos:R:3:Z:I:1:map_shift:I:3:n_neighb:I:1
 O               0.00000000      0.00000000      0.00000000       8       0       0       0       2
 H               0.95883000      0.00000000      0.00000000       1       0       0       0       2
 H               0.60790000      1.05291000      0.00000000       1       0       0       0       2
 3
 energy=2.2071474658328327 cutoff=3.72000000 nneightol=1.20000000 pbc="T T T" Lattice="15.00000000       0.00000000       0.00000000       0.00000000      15.00000000       0.00000000       0.00000000       0.00000000      15.00000000" Properties=species:S:1:pos:R:3:Z:I:1:map_shift:I:3:n_neighb:I:1
 O               0.00000000      0.00000000      0.00000000       8       0       0       0       2
 H               0.95883000      0.00000000      0.00000000       1       0       0       0       2
 H               0.62632000      1.08481000      0.00000000       1       0       0       0       2
 3
 energy=2.3672633031160011 cutoff=3.72000000 nneightol=1.20000000 pbc="T T T" Lattice="15.00000000       0.00000000       0.00000000       0.00000000      15.00000000       0.00000000       0.00000000       0.00000000      15.00000000" Properties=species:S:1:pos:R:3:Z:I:1:map_shift:I:3:n_neighb:I:1
 O               0.00000000      0.00000000      0.00000000       8       0       0       0       2
 H               0.95883000      0.00000000      0.00000000       1       0       0       0       2
 H               0.64474000      1.11671000      0.00000000       1       0       0       0       2
 3
 energy=2.5450786667734597 cutoff=3.72000000 nneightol=1.20000000 pbc="T T T" Lattice="15.00000000       0.00000000       0.00000000       0.00000000      15.00000000       0.00000000       0.00000000       0.00000000      15.00000000" Properties=species:S:1:pos:R:3:Z:I:1:map_shift:I:3:n_neighb:I:1
 O               0.00000000      0.00000000      0.00000000       8       0       0       0       2
 H               0.95883000      0.00000000      0.00000000       1       0       0       0       2
 H               0.66316000      1.14863000      0.00000000       1       0       0       0       2
 3
 energy=2.7409331967248782 cutoff=3.72000000 nneightol=1.20000000 pbc="T T T" Lattice="15.00000000       0.00000000       0.00000000       0.00000000      15.00000000       0.00000000       0.00000000       0.00000000      15.00000000" Properties=species:S:1:pos:R:3:Z:I:1:map_shift:I:3:n_neighb:I:1
 O               0.00000000      0.00000000      0.00000000       8       0       0       0       2
 H               0.95883000      0.00000000      0.00000000       1       0       0       0       2
 H               0.68158000      1.18053000      0.00000000       1       0       0       0       2
 3
 energy=2.9538724510408620 cutoff=3.72000000 nneightol=1.20000000 pbc="T T T" Lattice="15.00000000       0.00000000       0.00000000       0.00000000      15.00000000       0.00000000       0.00000000       0.00000000      15.00000000" Properties=species:S:1:pos:R:3:Z:I:1:map_shift:I:3:n_neighb:I:1
 O               0.00000000      0.00000000      0.00000000       8       0       0       0       2
 H               0.95883000      0.00000000      0.00000000       1       0       0       0       2
 H               0.70000000      1.21244000      0.00000000       1       0       0       0       2
 3
 energy=3.6212439076759750 cutoff=3.72000000 nneightol=1.20000000 pbc="T T T" Lattice="15.00000000       0.00000000       0.00000000       0.00000000      15.00000000       0.00000000       0.00000000       0.00000000      15.00000000" Properties=species:S:1:pos:R:3:Z:I:1:map_shift:I:3:n_neighb:I:1
 O               0.00000000      0.00000000      0.00000000       8       0       0       0       2
 H               0.95883000      0.00000000      0.00000000       1       0       0       0       2
 H               0.31667000      0.62428000      0.00000000       1       0       0       0       2
 3
 energy=3.0487445256139694 cutoff=3.72000000 nneightol=1.20000000 pbc="T T T" Lattice="15.00000000       0.00000000       0.00000000       0.00000000      15.00000000       0.00000000       0.00000000       0.00000000      15.00000000" Properties=species:S:1:pos:R:3:Z:I:1:map_shift:I:3:n_neighb:I:1
 O               0.00000000      0.00000000      0.00000000       8       0       0       0       2
 H               0.95883000      0.00000000      0.00000000       1       0       0       0       2
 H               0.33333000      0.65713000      0.00000000       1       0       0       0       2
 3
 energy=2.5550595056265415 cutoff=3.72000000 nneightol=1.20000000 pbc="T T T" Lattice="15.00000000       0.00000000       0.00000000       0.00000000      15.00000000       0.00000000       0.00000000       0.00000000      15.00000000" Properties=species:S:1:pos:R:3:Z:I:1:map_shift:I:3:n_neighb:I:1
 O               0.00000000      0.00000000      0.00000000       8       0       0       0       2
 H               0.95883000      0.00000000      0.00000000       1       0       0       0       2
 H               0.35000000      0.68999000      0.00000000       1       0       0       0       2
 3
 energy=2.1469806022965479 cutoff=3.72000000 nneightol=1.20000000 pbc="T T T" Lattice="15.00000000       0.00000000       0.00000000       0.00000000      15.00000000       0.00000000       0.00000000       0.00000000      15.00000000" Properties=species:S:1:pos:R:3:Z:I:1:map_shift:I:3:n_neighb:I:1
 O               0.00000000      0.00000000      0.00000000       8       0       0       0       2
 H               0.95883000      0.00000000      0.00000000       1       0       0       0       2
 H               0.36667000      0.72285000      0.00000000       1       0       0       0       2
 3
 energy=1.8275494080618415 cutoff=3.72000000 nneightol=1.20000000 pbc="T T T" Lattice="15.00000000       0.00000000       0.00000000       0.00000000      15.00000000       0.00000000       0.00000000       0.00000000      15.00000000" Properties=species:S:1:pos:R:3:Z:I:1:map_shift:I:3:n_neighb:I:1
 O               0.00000000      0.00000000      0.00000000       8       0       0       0       2
 H               0.95883000      0.00000000      0.00000000       1       0       0       0       2
 H               0.38333000      0.75571000      0.00000000       1       0       0       0       2
 3
 energy=1.5956014984454754 cutoff=3.72000000 nneightol=1.20000000 pbc="T T T" Lattice="15.00000000       0.00000000       0.00000000       0.00000000      15.00000000       0.00000000       0.00000000       0.00000000      15.00000000" Properties=species:S:1:pos:R:3:Z:I:1:map_shift:I:3:n_neighb:I:1
 O               0.00000000      0.00000000      0.00000000       8       0       0       0       2
 H               0.95883000      0.00000000      0.00000000       1       0       0       0       2
 H               0.40000000      0.78856000      0.00000000       1       0       0       0       2
 3
 energy=1.4453028459364852 cutoff=3.72000000 nneightol=1.20000000 pbc="T T T" Lattice="15.00000000       0.00000000       0.00000000       0.00000000      15.00000000       0.00000000       0.00000000       0.00000000      15.00000000" Properties=species:S:1:pos:R:3:Z:I:1:map_shift:I:3:n_neighb:I:1
 O               0.00000000      0.00000000      0.00000000       8       0       0       0       2
 H               0.95883000      0.00000000      0.00000000       1       0       0       0       2
 H               0.41667000      0.82142000      0.00000000       1       0       0       0       2
 3
 energy=1.3670565073328582 cutoff=3.72000000 nneightol=1.20000000 pbc="T T T" Lattice="15.00000000       0.00000000       0.00000000       0.00000000      15.00000000       0.00000000       0.00000000       0.00000000      15.00000000" Properties=species:S:1:pos:R:3:Z:I:1:map_shift:I:3:n_neighb:I:1
 O               0.00000000      0.00000000      0.00000000       8       0       0       0       2
 H               0.95883000      0.00000000      0.00000000       1       0       0       0       2
 H               0.43333000      0.85427000      0.00000000       1       0       0       0       2
 3
 energy=1.3485169430021351 cutoff=3.72000000 nneightol=1.20000000 pbc="T T T" Lattice="15.00000000       0.00000000       0.00000000       0.00000000      15.00000000       0.00000000       0.00000000       0.00000000      15.00000000" Properties=species:S:1:pos:R:3:Z:I:1:map_shift:I:3:n_neighb:I:1
 O               0.00000000      0.00000000      0.00000000       8       0       0       0       2
 H               0.95883000      0.00000000      0.00000000       1       0       0       0       2
 H               0.45000000      0.88713000      0.00000000       1       0       0       0       2
 3
 energy=1.3765582181222982 cutoff=3.72000000 nneightol=1.20000000 pbc="T T T" Lattice="15.00000000       0.00000000       0.00000000       0.00000000      15.00000000       0.00000000       0.00000000       0.00000000      15.00000000" Properties=species:S:1:pos:R:3:Z:I:1:map_shift:I:3:n_neighb:I:1
 O               0.00000000      0.00000000      0.00000000       8       0       0       0       2
 H               0.95883000      0.00000000      0.00000000       1       0       0       0       2
 H               0.46667000      0.91999000      0.00000000       1       0       0       0       2
 3
 energy=1.4390066787532128 cutoff=3.72000000 nneightol=1.20000000 pbc="T T T" Lattice="15.00000000       0.00000000       0.00000000       0.00000000      15.00000000       0.00000000       0.00000000       0.00000000      15.00000000" Properties=species:S:1:pos:R:3:Z:I:1:map_shift:I:3:n_neighb:I:1
 O               0.00000000      0.00000000      0.00000000       8       0       0       0       2
 H               0.95883000      0.00000000      0.00000000       1       0       0       0       2
 H               0.48333000      0.95284000      0.00000000       1       0       0       0       2
 3
 energy=1.5262554068990042 cutoff=3.72000000 nneightol=1.20000000 pbc="T T T" Lattice="15.00000000       0.00000000       0.00000000       0.00000000      15.00000000       0.00000000       0.00000000       0.00000000      15.00000000" Properties=species:S:1:pos:R:3:Z:I:1:map_shift:I:3:n_neighb:I:1
 O               0.00000000      0.00000000      0.00000000       8       0       0       0       2
 H               0.95883000      0.00000000      0.00000000       1       0       0       0       2
 H               0.50000000      0.98570000      0.00000000       1       0       0       0       2
 3
 energy=1.6317776045768042 cutoff=3.72000000 nneightol=1.20000000 pbc="T T T" Lattice="15.00000000       0.00000000       0.00000000       0.00000000      15.00000000       0.00000000       0.00000000       0.00000000      15.00000000" Properties=species:S:1:pos:R:3:Z:I:1:map_shift:I:3:n_neighb:I:1
 O               0.00000000      0.00000000      0.00000000       8       0       0       0       2
 H               0.95883000      0.00000000      0.00000000       1       0       0       0       2
 H               0.51667000      1.01856000      0.00000000       1       0       0       0       2
 3
 energy=1.7522556782298935 cutoff=3.72000000 nneightol=1.20000000 pbc="T T T" Lattice="15.00000000       0.00000000       0.00000000       0.00000000      15.00000000       0.00000000       0.00000000       0.00000000      15.00000000" Properties=species:S:1:pos:R:3:Z:I:1:map_shift:I:3:n_neighb:I:1
 O               0.00000000      0.00000000      0.00000000       8       0       0       0       2
 H               0.95883000      0.00000000      0.00000000       1       0       0       0       2
 H               0.53333000      1.05142000      0.00000000       1       0       0       0       2
 3
 energy=1.8871302040754188 cutoff=3.72000000 nneightol=1.20000000 pbc="T T T" Lattice="15.00000000       0.00000000       0.00000000       0.00000000      15.00000000       0.00000000       0.00000000       0.00000000      15.00000000" Properties=species:S:1:pos:R:3:Z:I:1:map_shift:I:3:n_neighb:I:1
 O               0.00000000      0.00000000      0.00000000       8       0       0       0       2
 H               0.95883000      0.00000000      0.00000000       1       0       0       0       2
 H               0.55000000      1.08427000      0.00000000       1       0       0       0       2
 3
 energy=2.0375298854354398 cutoff=3.72000000 nneightol=1.20000000 pbc="T T T" Lattice="15.00000000       0.00000000       0.00000000       0.00000000      15.00000000       0.00000000       0.00000000       0.00000000      15.00000000" Properties=species:S:1:pos:R:3:Z:I:1:map_shift:I:3:n_neighb:I:1
 O               0.00000000      0.00000000      0.00000000       8       0       0       0       2
 H               0.95883000      0.00000000      0.00000000       1       0       0       0       2
 H               0.56667000      1.11713000      0.00000000       1       0       0       0       2
 3
 energy=2.2051979239068231 cutoff=3.72000000 nneightol=1.20000000 pbc="T T T" Lattice="15.00000000       0.00000000       0.00000000       0.00000000      15.00000000       0.00000000       0.00000000       0.00000000      15.00000000" Properties=species:S:1:pos:R:3:Z:I:1:map_shift:I:3:n_neighb:I:1
 O               0.00000000      0.00000000      0.00000000       8       0       0       0       2
 H               0.95883000      0.00000000      0.00000000       1       0       0       0       2
 H               0.58333000      1.14998000      0.00000000       1       0       0       0       2
 3
 energy=2.3918755373878398 cutoff=3.72000000 nneightol=1.20000000 pbc="T T T" Lattice="15.00000000       0.00000000       0.00000000       0.00000000      15.00000000       0.00000000       0.00000000       0.00000000      15.00000000" Properties=species:S:1:pos:R:3:Z:I:1:map_shift:I:3:n_neighb:I:1
 O               0.00000000      0.00000000      0.00000000       8       0       0       0       2
 H               0.95883000      0.00000000      0.00000000       1       0       0       0       2
 H               0.60000000      1.18285000      0.00000000       1       0       0       0       2
 3
 energy=2.5978570403120465 cutoff=3.72000000 nneightol=1.20000000 pbc="T T T" Lattice="15.00000000       0.00000000       0.00000000       0.00000000      15.00000000       0.00000000       0.00000000       0.00000000      15.00000000" Properties=species:S:1:pos:R:3:Z:I:1:map_shift:I:3:n_neighb:I:1
 O               0.00000000      0.00000000      0.00000000       8       0       0       0       2
 H               0.95883000      0.00000000      0.00000000       1       0       0       0       2
 H               0.61667000      1.21570000      0.00000000       1       0       0       0       2
 3
 energy=2.8220001584002823 cutoff=3.72000000 nneightol=1.20000000 pbc="T T T" Lattice="15.00000000       0.00000000       0.00000000       0.00000000      15.00000000       0.00000000       0.00000000       0.00000000      15.00000000" Properties=species:S:1:pos:R:3:Z:I:1:map_shift:I:3:n_neighb:I:1
 O               0.00000000      0.00000000      0.00000000       8       0       0       0       2
 H               0.95883000      0.00000000      0.00000000       1       0       0       0       2
 H               0.63333000      1.24855000      0.00000000       1       0       0       0       2
 3
 energy=3.5647083771000752 cutoff=3.72000000 nneightol=1.20000000 pbc="T T T" Lattice="15.00000000       0.00000000       0.00000000       0.00000000      15.00000000       0.00000000       0.00000000       0.00000000      15.00000000" Properties=species:S:1:pos:R:3:Z:I:1:map_shift:I:3:n_neighb:I:1
 O               0.00000000      0.00000000      0.00000000       8       0       0       0       2
 H               0.95883000      0.00000000      0.00000000       1       0       0       0       2
 H               0.28240000      0.64051000      0.00000000       1       0       0       0       2
 3
 energy=2.9631367255772112 cutoff=3.72000000 nneightol=1.20000000 pbc="T T T" Lattice="15.00000000       0.00000000       0.00000000       0.00000000      15.00000000       0.00000000       0.00000000       0.00000000      15.00000000" Properties=species:S:1:pos:R:3:Z:I:1:map_shift:I:3:n_neighb:I:1
 O               0.00000000      0.00000000      0.00000000       8       0       0       0       2
 H               0.95883000      0.00000000      0.00000000       1       0       0       0       2
 H               0.29727000      0.67421000      0.00000000       1       0       0       0       2
 3
 energy=2.4414260284981673 cutoff=3.72000000 nneightol=1.20000000 pbc="T T T" Lattice="15.00000000       0.00000000       0.00000000       0.00000000      15.00000000       0.00000000       0.00000000       0.00000000      15.00000000" Properties=species:S:1:pos:R:3:Z:I:1:map_shift:I:3:n_neighb:I:1
 O               0.00000000      0.00000000      0.00000000       8       0       0       0       2
 H               0.95883000      0.00000000      0.00000000       1       0       0       0       2
 H               0.31213000      0.70792000      0.00000000       1       0       0       0       2
 3
 energy=2.0077868182887855 cutoff=3.72000000 nneightol=1.20000000 pbc="T T T" Lattice="15.00000000       0.00000000       0.00000000       0.00000000      15.00000000       0.00000000       0.00000000       0.00000000      15.00000000" Properties=species:S:1:pos:R:3:Z:I:1:map_shift:I:3:n_neighb:I:1
 O               0.00000000      0.00000000      0.00000000       8       0       0       0       2
 H               0.95883000      0.00000000      0.00000000       1       0       0       0       2
 H               0.32700000      0.74164000      0.00000000       1       0       0       0       2
 3
 energy=1.6669847609352360 cutoff=3.72000000 nneightol=1.20000000 pbc="T T T" Lattice="15.00000000       0.00000000       0.00000000       0.00000000      15.00000000       0.00000000       0.00000000       0.00000000      15.00000000" Properties=species:S:1:pos:R:3:Z:I:1:map_shift:I:3:n_neighb:I:1
 O               0.00000000      0.00000000      0.00000000       8       0       0       0       2
 H               0.95883000      0.00000000      0.00000000       1       0       0       0       2
 H               0.34186000      0.77535000      0.00000000       1       0       0       0       2
 3
 energy=1.4186483974604016 cutoff=3.72000000 nneightol=1.20000000 pbc="T T T" Lattice="15.00000000       0.00000000       0.00000000       0.00000000      15.00000000       0.00000000       0.00000000       0.00000000      15.00000000" Properties=species:S:1:pos:R:3:Z:I:1:map_shift:I:3:n_neighb:I:1
 O               0.00000000      0.00000000      0.00000000       8       0       0       0       2
 H               0.95883000      0.00000000      0.00000000       1       0       0       0       2
 H               0.35672000      0.80906000      0.00000000       1       0       0       0       2
 3
 energy=1.2574276951060206 cutoff=3.72000000 nneightol=1.20000000 pbc="T T T" Lattice="15.00000000       0.00000000       0.00000000       0.00000000      15.00000000       0.00000000       0.00000000       0.00000000      15.00000000" Properties=species:S:1:pos:R:3:Z:I:1:map_shift:I:3:n_neighb:I:1
 O               0.00000000      0.00000000      0.00000000       8       0       0       0       2
 H               0.95883000      0.00000000      0.00000000       1       0       0       0       2
 H               0.37158000      0.84277000      0.00000000       1       0       0       0       2
 3
 energy=1.1733692914818405 cutoff=3.72000000 nneightol=1.20000000 pbc="T T T" Lattice="15.00000000       0.00000000       0.00000000       0.00000000      15.00000000       0.00000000       0.00000000       0.00000000      15.00000000" Properties=species:S:1:pos:R:3:Z:I:1:map_shift:I:3:n_neighb:I:1
 O               0.00000000      0.00000000      0.00000000       8       0       0       0       2
 H               0.95883000      0.00000000      0.00000000       1       0       0       0       2
 H               0.38645000      0.87648000      0.00000000       1       0       0       0       2
 3
 energy=1.1532697145957016 cutoff=3.72000000 nneightol=1.20000000 pbc="T T T" Lattice="15.00000000       0.00000000       0.00000000       0.00000000      15.00000000       0.00000000       0.00000000       0.00000000      15.00000000" Properties=species:S:1:pos:R:3:Z:I:1:map_shift:I:3:n_neighb:I:1
 O               0.00000000      0.00000000      0.00000000       8       0       0       0       2
 H               0.95883000      0.00000000      0.00000000       1       0       0       0       2
 H               0.40131000      0.91020000      0.00000000       1       0       0       0       2
 3
 energy=1.1830165872346718 cutoff=3.72000000 nneightol=1.20000000 pbc="T T T" Lattice="15.00000000       0.00000000       0.00000000       0.00000000      15.00000000       0.00000000       0.00000000       0.00000000      15.00000000" Properties=species:S:1:pos:R:3:Z:I:1:map_shift:I:3:n_neighb:I:1
 O               0.00000000      0.00000000      0.00000000       8       0       0       0       2