       3
Lattice="15.0 0.0 0.0 0.0 15.0 0.0 0.0 0.0 15.0" Properties=species:S:1:pos:R:3:forces:R:3 energy=       23.1115507372 pbc="T T T"
       O     0.0497115800     0.0174313400     0.0000000000   -147.590182708    105.360092779     -0.000000000
       H     0.4498508900    -0.2723355600     0.0000000000    143.417218241   -100.825168187     -0.000000000
       H    -0.5175032500     0.9246343600     0.0000000000      4.172964467     -4.534924592     -0.000000000
       3
Lattice="15.0 0.0 0.0 0.0 15.0 0.0 0.0 0.0 15.0" Properties=species:S:1:pos:R:3:forces:R:3 energy=       14.3193247219 pbc="T T T"
       O     0.0446951800     0.0213256400     0.0000000000    -99.691844610     60.435972433     -0.000000000
       H     0.5136634300    -0.2723363500     0.0000000000     96.523957291    -57.813344669     -0.000000000
       H    -0.5017020200     0.8628299300     0.0000000000      3.167887320     -2.622627713     -0.000000000
       3
Lattice="15.0 0.0 0.0 0.0 15.0 0.0 0.0 0.0 15.0" Properties=species:S:1:pos:R:3:forces:R:3 energy=        8.5972750636 pbc="T T T"
       O     0.0396787900     0.0252199400     0.0000000000    -64.274532792     32.222000791     -0.000000000
       H     0.5774759700    -0.2723371300     0.0000000000     62.873859149    -32.497547281     -0.000000000
       H    -0.4859007900     0.8010255000     0.0000000000      1.400673643      0.275546490     -0.000000000
       3
Lattice="15.0 0.0 0.0 0.0 15.0 0.0 0.0 0.0 15.0" Properties=species:S:1:pos:R:3:forces:R:3 energy=        5.1828134290 pbc="T T T"
       O     0.0346623900     0.0291142400     0.0000000000    -37.838660471     12.954202198     -0.000000000
       H     0.6412885100    -0.2723379100     0.0000000000     39.399013220    -17.566971655     -0.000000000
       H    -0.4700995600     0.7392210700     0.0000000000     -1.560352697      4.612769457     -0.000000000
       3
Lattice="15.0 0.0 0.0 0.0 15.0 0.0 0.0 0.0 15.0" Properties=species:S:1:pos:R:3:forces:R:3 energy=        3.5913102227 pbc="T T T"
       O     0.0296460000     0.0330085500     0.0000000000    -16.851177328     -2.303169331     -0.000000000
       H     0.7051010500    -0.2723386900     0.0000000000     23.256390966     -8.723689730     -0.000000000
       H    -0.4542983400     0.6774166400     0.0000000000     -6.405213638     11.026859010     -0.000000000
       3
Lattice="15.0 0.0 0.0 0.0 15.0 0.0 0.0 0.0 15.0" Properties=species:S:1:pos:R:3:forces:R:3 energy=        3.5917491315 pbc="T T T"
       O     0.0246296000     0.0369028500     0.0000000000      1.959627929    -16.907512539     -0.000000000
       H     0.7689135900    -0.2723394800     0.0000000000     12.260796071     -3.470839674     -0.000000000
       H    -0.4384971100     0.6156122100     0.0000000000    -14.220423949     20.378352161     -0.000000000
       3
Lattice="15.0 0.0 0.0 0.0 15.0 0.0 0.0 0.0 15.0" Properties=species:S:1:pos:R:3:forces:R:3 energy=        5.1839714667 pbc="T T T"
       O     0.0196132100     0.0407971500     0.0000000000     21.940725592    -33.456855531     -0.000000000
       H     0.8327261200    -0.2723402600     0.0000000000      4.847640716     -0.368340681     -0.000000000
       H    -0.4226958800     0.5538077800     0.0000000000    -26.788366308     33.825196212     -0.000000000
       3
Lattice="15.0 0.0 0.0 0.0 15.0 0.0 0.0 0.0 15.0" Properties=species:S:1:pos:R:3:forces:R:3 energy=        8.5986309171 pbc="T T T"
       O     0.0145968100     0.0446914500     0.0000000000     47.155212314    -54.287488041     -0.000000000
       H     0.8965386600    -0.2723410400     0.0000000000     -0.086882759      1.423190090     -0.000000000
       H    -0.4068946500     0.4920033500     0.0000000000    -47.068329555     52.864298003     -0.000000000
       3
Lattice="15.0 0.0 0.0 0.0 15.0 0.0 0.0 0.0 15.0" Properties=species:S:1:pos:R:3:forces:R:3 energy=       14.3198601821 pbc="T T T"
       O     0.0095804200     0.0485857500     0.0000000000     83.259084489    -81.597350369     -0.000000000
       H     0.9603512000    -0.2723418200     0.0000000000     -3.332788390      2.414142670     -0.000000000
       H    -0.3910934200     0.4301989200     0.0000000000    -79.926296151     79.183207700     -0.000000000
       3
Lattice="15.0 0.0 0.0 0.0 15.0 0.0 0.0 0.0 15.0" Properties=species:S:1:pos:R:3:forces:R:3 energy=       23.1095350048 pbc="T T T"
       O     0.0045640200     0.0524800500     0.0000000000    138.639362183   -116.852047858     -0.000000000
       H     1.0241637400    -0.2723426100     0.0000000000     -5.438225807      2.910611560     -0.000000000
       H    -0.3752921900     0.3683944900     0.0000000000   -133.201136427    113.941436298     -0.000000000
       3
Lattice="15.0 0.0 0.0 0.0 15.0 0.0 0.0 0.0 15.0" Properties=species:S:1:pos:R:3:forces:R:3 energy=       15.5514497601 pbc="T T T"
       O     0.0470026500     0.0139411400     0.0000000000   -105.172541719     64.841328689     -0.000000000
       H     0.5123751400    -0.2765047800     0.0000000000    100.507777487    -59.591420850     -0.000000000
       H    -0.5370349400     0.9841958600     0.0000000000      4.664764232     -5.249907839     -0.000000000
       3
Lattice="15.0 0.0 0.0 0.0 15.0 0.0 0.0 0.0 15.0" Properties=species:S:1:pos:R:3:forces:R:3 energy=        9.3288182368 pbc="T T T"
       O     0.0419862600     0.0178354400     0.0000000000    -69.706233753     37.488409875     -0.000000000
       H     0.5761876800    -0.2765055600     0.0000000000     65.613215360    -33.464370664     -0.000000000
       H    -0.5212337100     0.9223914300     0.0000000000      4.093018393     -4.024039211     -0.000000000
       3
Lattice="15.0 0.0 0.0 0.0 15.0 0.0 0.0 0.0 15.0" Properties=species:S:1:pos:R:3:forces:R:3 energy=        5.3225056260 pbc="T T T"
       O     0.0369698600     0.0217297500     0.0000000000    -44.350201667     20.178671865     -0.000000000
       H     0.6400002200    -0.2765063400     0.0000000000     41.322940027    -18.097536834     -0.000000000
       H    -0.5054324800     0.8605870000     0.0000000000      3.027261640     -2.081134979     -0.000000000
       3
Lattice="15.0 0.0 0.0 0.0 15.0 0.0 0.0 0.0 15.0" Properties=species:S:1:pos:R:3:forces:R:3 energy=        2.9461547400 pbc="T T T"
       O     0.0319534700     0.0256240500     0.0000000000    -25.845603629      8.119905411     -0.000000000
       H     0.7038127600    -0.2765071200     0.0000000000     24.654041556     -9.018191481     -0.000000000
       H    -0.4896312600     0.7987825700     0.0000000000      1.191562073      0.898286070     -0.000000000
       3
Lattice="15.0 0.0 0.0 0.0 15.0 0.0 0.0 0.0 15.0" Properties=species:S:1:pos:R:3:forces:R:3 energy=        1.8419240813 pbc="T T T"
       O     0.0269370700     0.0295183500     0.0000000000    -11.454093047     -1.735230784     -0.000000000
       H     0.7676253000    -0.2765079100     0.0000000000     13.313161639     -3.641248050     -0.000000000
       H    -0.4738300300     0.7369781400     0.0000000000     -1.859068540      5.376478885     -0.000000000
       3
Lattice="15.0 0.0 0.0 0.0 15.0 0.0 0.0 0.0 15.0" Properties=species:S:1:pos:R:3:forces:R:3 energy=        1.8421268579 pbc="T T T"
       O     0.0219206800     0.0334126500     0.0000000000      1.163378450    -11.531325834     -0.000000000
       H     0.8314378300    -0.2765086900     0.0000000000      5.665178733     -0.468106730     -0.000000000
       H    -0.4580288000     0.6751737100     0.0000000000     -6.828557183     11.999432616     -0.000000000
       3
Lattice="15.0 0.0 0.0 0.0 15.0 0.0 0.0 0.0 15.0" Properties=species:S:1:pos:R:3:forces:R:3 energy=        2.9466255079 pbc="T T T"
       O     0.0169042800     0.0373069500     0.0000000000     14.275582931    -23.029558419     -0.000000000
       H     0.8952503700    -0.2765094700     0.0000000000      0.571316361      1.376901880     -0.000000000
       H    -0.4422275700     0.6133692800     0.0000000000    -14.846899292     21.652656538     -0.000000000
       3
Lattice="15.0 0.0 0.0 0.0 15.0 0.0 0.0 0.0 15.0" Properties=species:S:1:pos:R:3:forces:R:3 energy=        5.3227974355 pbc="T T T"
       O     0.0118878900     0.0412012500     0.0000000000     30.539275970    -37.963563282     -0.000000000
       H     0.9590629100    -0.2765102500     0.0000000000     -2.769287517      2.415762671     -0.000000000
       H    -0.4264263400     0.5515648500     0.0000000000    -27.769988453     35.547800611     -0.000000000
       3
Lattice="15.0 0.0 0.0 0.0 15.0 0.0 0.0 0.0 15.0" Properties=species:S:1:pos:R:3:forces:R:3 energy=        9.3280590282 pbc="T T T"
       O     0.0068714900     0.0450955500     0.0000000000     53.583668324    -58.229464388     -0.000000000
       H     1.0228754500    -0.2765110400     0.0000000000     -4.915306423      2.964970929     -0.000000000
       H    -0.4106251100     0.4897604200     0.0000000000    -48.668361952     55.264493459     -0.000000000
       3
Lattice="15.0 0.0 0.0 0.0 15.0 0.0 0.0 0.0 15.0" Properties=species:S:1:pos:R:3:forces:R:3 energy=       15.5481434026 pbc="T T T"
       O     0.0018551000     0.0489898600     0.0000000000     88.856062930    -85.794975378     -0.000000000
       H     1.0866879900    -0.2765118200     0.0000000000     -6.245622464      3.212572959     -0.000000000
       H    -0.3948238800     0.4279559900     0.0000000000    -82.610440518     82.582402419     -0.000000000
       3
Lattice="15.0 0.0 0.0 0.0 15.0 0.0 0.0 0.0 15.0" Properties=species:S:1:pos:R:3:forces:R:3 energy=       10.4895809526 pbc="T T T"
       O     0.0442937300     0.0104509500     0.0000000000    -73.249625724     39.978662633     -0.000000000
       H     0.5748993900    -0.2806739900     0.0000000000     68.406975008    -34.409012203     -0.000000000
       H    -0.5565666300     1.0437573600     0.0000000000      4.842650716     -5.569650481     -0.000000000
       3
Lattice="15.0 0.0 0.0 0.0 15.0 0.0 0.0 0.0 15.0" Properties=species:S:1:pos:R:3:forces:R:3 energy=        6.1574376848 pbc="T T T"
       O     0.0392773300     0.0143452500     0.0000000000    -47.828528963     23.447320200     -0.000000000
       H     0.6387119300    -0.2806747700     0.0000000000     43.262903224    -18.606661729     -0.000000000
       H    -0.5407654100     0.9819529300     0.0000000000      4.565625738     -4.840658470     -0.000000000
       3
Lattice="15.0 0.0 0.0 0.0 15.0 0.0 0.0 0.0 15.0" Properties=species:S:1:pos:R:3:forces:R:3 energy=        3.3879730429 pbc="T T T"
       O     0.0342609400     0.0182395500     0.0000000000    -30.009216681     12.883192306     -0.000000000
       H     0.7025244700    -0.2806755500     0.0000000000     26.042967514     -9.297067963     -0.000000000
       H    -0.5249641800     0.9201485000     0.0000000000      3.966249167     -3.586124395     -0.000000000
       3
Lattice="15.0 0.0 0.0 0.0 15.0 0.0 0.0 0.0 15.0" Properties=species:S:1:pos:R:3:forces:R:3 energy=        1.7529208215 pbc="T T T"
       O     0.0292445400     0.0221338500     0.0000000000    -17.215297027      5.378437089     -0.000000000
       H     0.7663370100    -0.2806763400     0.0000000000     14.348694237     -3.797443566     -0.000000000
       H    -0.5091629500     0.8583440700     0.0000000000      2.866602789     -1.580993523     -0.000000000
       3
Lattice="15.0 0.0 0.0 0.0 15.0 0.0 0.0 0.0 15.0" Properties=species:S:1:pos:R:3:forces:R:3 energy=        0.9953950360 pbc="T T T"
       O     0.0242281500     0.0260281500     0.0000000000     -7.448411881     -0.942039787     -0.000000000
       H     0.8301495400    -0.2806771200     0.0000000000      6.467136475     -0.558990796     -0.000000000
       H    -0.4933617200     0.7965396400     0.0000000000      0.981275406      1.501030583     -0.000000000
       3
Lattice="15.0 0.0 0.0 0.0 15.0 0.0 0.0 0.0 15.0" Properties=species:S:1:pos:R:3:forces:R:3 energy=        0.9954797042 pbc="T T T"
       O     0.0192117500     0.0299224500     0.0000000000      0.934562759     -7.450458789     -0.000000000
       H     0.8939620800    -0.2806779000     0.0000000000      1.209632412      1.322772780     -0.000000000
       H    -0.4775604900     0.7347352100     0.0000000000     -2.144195222      6.127686009     -0.000000000
       3
Lattice="15.0 0.0 0.0 0.0 15.0 0.0 0.0 0.0 15.0" Properties=species:S:1:pos:R:3:forces:R:3 energy=        1.7530609057 pbc="T T T"
       O     0.0141953600     0.0338167600     0.0000000000      9.476435609    -15.344472883     -0.000000000
       H     0.9577746200    -0.2806786800     0.0000000000     -2.243338755      2.385303363     -0.000000000
       H    -0.4617592600     0.6729307800     0.0000000000     -7.233096854     12.959169520     -0.000000000
       3
Lattice="15.0 0.0 0.0 0.0 15.0 0.0 0.0 0.0 15.0" Properties=species:S:1:pos:R:3:forces:R:3 energy=        3.3877962423 pbc="T T T"
       O     0.0091789600     0.0377110600     0.0000000000     19.913233055    -25.875139859     -0.000000000
       H     1.0215871600    -0.2806794700     0.0000000000     -4.457956166      2.953103071     -0.000000000
       H    -0.4459580300     0.6111263500     0.0000000000    -15.455276889     22.922036788     -0.000000000
       3
Lattice="15.0 0.0 0.0 0.0 15.0 0.0 0.0 0.0 15.0" Properties=species:S:1:pos:R:3:forces:R:3 energy=        6.1562205249 pbc="T T T"
       O     0.0041625700     0.0416053600     0.0000000000     34.555306860    -40.512430844     -0.000000000
       H     1.0853997000    -0.2806802500     0.0000000000     -5.821402429      3.221792528     -0.000000000
       H    -0.4301568000     0.5493219200     0.0000000000    -28.733904431     37.290638367     -0.000000000
       3
Lattice="15.0 0.0 0.0 0.0 15.0 0.0 0.0 0.0 15.0" Properties=species:S:1:pos:R:3:forces:R:3 energy=       10.4860765234 pbc="T T T"
       O    -0.0008538300     0.0454996600     0.0000000000     56.855401367    -61.029759218     -0.000000000
       H     1.1492122300    -0.2806810300     0.0000000000     -6.596253583      3.307846775     -0.000000000
       H    -0.4143555700     0.4875174900     0.0000000000    -50.259147783     57.721912444     -0.000000000
       3
Lattice="15.0 0.0 0.0 0.0 15.0 0.0 0.0 0.0 15.0" Properties=species:S:1:pos:R:3:forces:R:3 energy=        7.2432746439 pbc="T T T"
       O     0.0415848000     0.0069607500     0.0000000000    -50.041732164     24.700500383     -0.000000000
       H     0.6374236400    -0.2848432000     0.0000000000     45.233881345    -19.105860464     -0.000000000
       H    -0.5760983300     1.1033188600     0.0000000000      4.807850819     -5.594639919     -0.000000000
       3
Lattice="15.0 0.0 0.0 0.0 15.0 0.0 0.0 0.0 15.0" Properties=species:S:1:pos:R:3:forces:R:3 energy=        4.2708768132 pbc="T T T"
       O     0.0365684100     0.0108550500     0.0000000000    -32.170628326     14.787705630     -0.000000000
       H     0.7012361800    -0.2848439800     0.0000000000     27.436843054     -9.560111789     -0.000000000
       H    -0.5602971000     1.0415144300     0.0000000000      4.733785272     -5.227593892     -0.000000000
       3
Lattice="15.0 0.0 0.0 0.0 15.0 0.0 0.0 0.0 15.0" Properties=species:S:1:pos:R:3:forces:R:3 energy=        2.3825859451 pbc="T T T"
       O     0.0315520100     0.0147493500     0.0000000000    -19.817303659      8.411196727     -0.000000000
       H     0.7650487200    -0.2848447700     0.0000000000     15.368423903     -3.937664759     -0.000000000
       H    -0.5444958700     0.9797100000     0.0000000000      4.448879756     -4.473531968     -0.000000000
       3
Lattice="15.0 0.0 0.0 0.0 15.0 0.0 0.0 0.0 15.0" Properties=species:S:1:pos:R:3:forces:R:3 energy=        1.2731447169 pbc="T T T"
       O     0.0265356200     0.0186436500     0.0000000000    -11.081289958      3.809398224     -0.000000000
       H     0.8288612500    -0.2848455500     0.0000000000      7.243771719     -0.635381289     -0.000000000
       H    -0.5286946400     0.9179055700     0.0000000000      3.837518239     -3.174016935     -0.000000000
       3
Lattice="15.0 0.0 0.0 0.0 15.0 0.0 0.0 0.0 15.0" Properties=species:S:1:pos:R:3:forces:R:3 energy=        0.7607919927 pbc="T T T"
       O     0.0215192200     0.0225379600     0.0000000000     -4.540205692     -0.180429101     -0.000000000
       H     0.8926737900    -0.2848463300     0.0000000000      1.825228076      1.279542180     -0.000000000
       H    -0.5128934100     0.8561011400     0.0000000000      2.714977617     -1.099113079     -0.000000000
       3
Lattice="15.0 0.0 0.0 0.0 15.0 0.0 0.0 0.0 15.0" Properties=species:S:1:pos:R:3:forces:R:3 energy=        0.7608285430 pbc="T T T"
       O     0.0165028300     0.0264322600     0.0000000000      0.949598012     -4.442527997     -0.000000000
       H     0.9564863300    -0.2848471200     0.0000000000     -1.737502303      2.357982397     -0.000000000
       H    -0.4970921800     0.7942967100     0.0000000000      0.787904291      2.084545601     -0.000000000
       3
Lattice="15.0 0.0 0.0 0.0 15.0 0.0 0.0 0.0 15.0" Properties=species:S:1:pos:R:3:forces:R:3 energy=        1.2731611662 pbc="T T T"
       O     0.0114864300     0.0303265600     0.0000000000      6.434465144     -9.789117845     -0.000000000
       H     1.0202988700    -0.2848479000     0.0000000000     -4.026000809      2.931298100     -0.000000000
       H    -0.4812909500     0.7324922800     0.0000000000     -2.408464334      6.857819745     -0.000000000
       3
Lattice="15.0 0.0 0.0 0.0 15.0 0.0 0.0 0.0 15.0" Properties=species:S:1:pos:R:3:forces:R:3 energy=        2.3822800565 pbc="T T T"
       O     0.0064700400     0.0342208600     0.0000000000     13.053980845    -17.108480393     -0.000000000
       H     1.0841114100    -0.2848486800     0.0000000000     -5.436223843      3.201208832     -0.000000000
       H    -0.4654897200     0.6706878500     0.0000000000     -7.617757002     13.907271509     -0.000000000
       3
Lattice="15.0 0.0 0.0 0.0 15.0 0.0 0.0 0.0 15.0" Properties=species:S:1:pos:R:3:forces:R:3 energy=        4.2696625786 pbc="T T T"
       O     0.0014536400     0.0381151600     0.0000000000     22.285952970    -27.489368711     -0.000000000
       H     1.1479239400    -0.2848494600     0.0000000000     -6.236939381      3.289693698     -0.000000000
       H    -0.4496884900     0.6088834200     0.0000000000    -16.049013589     24.199675013     -0.000000000
       3
Lattice="15.0 0.0 0.0 0.0 15.0 0.0 0.0 0.0 15.0" Properties=species:S:1:pos:R:3:forces:R:3 energy=        7.2401450623 pbc="T T T"
       O    -0.0035627500     0.0420094600     0.0000000000     36.305681705    -42.334678958     -0.000000000
       H     1.2117364800    -0.2848502500     0.0000000000     -6.610509431      3.269418586     -0.000000000
       H    -0.4338872700     0.5470789900     0.0000000000    -29.695172274     39.065260372     -0.000000000
       3
Lattice="15.0 0.0 0.0 0.0 15.0 0.0 0.0 0.0 15.0" Properties=species:S:1:pos:R:3:forces:R:3 energy=        5.2768055400 pbc="T T T"
       O     0.0388758800     0.0034705500     0.0000000000    -33.470474671     15.238374667     -0.000000000
       H     0.6999478900    -0.2890124100     0.0000000000     28.843081698     -9.833375242     -0.000000000
       H    -0.5956300200     1.1628803600     0.0000000000      4.627392973     -5.404999426     -0.000000000
       3
Lattice="15.0 0.0 0.0 0.0 15.0 0.0 0.0 0.0 15.0" Properties=species:S:1:pos:R:3:forces:R:3 energy=        3.2721412258 pbc="T T T"
       O     0.0338594800     0.0073648500     0.0000000000    -21.082814294      9.379886217     -0.000000000
       H     0.7637604300    -0.2890132000     0.0000000000     16.388071088     -4.077658513     -0.000000000
       H    -0.5798287900     1.1010759300     0.0000000000      4.694743206     -5.302227704     -0.000000000
       3
Lattice="15.0 0.0 0.0 0.0 15.0 0.0 0.0 0.0 15.0" Properties=species:S:1:pos:R:3:forces:R:3 energy=        2.0085069618 pbc="T T T"
       O     0.0288430900     0.0112591600     0.0000000000    -12.633492923      5.620051841     -0.000000000
       H     0.8275729600    -0.2890139800     0.0000000000      8.010454938     -0.707637087     -0.000000000
       H    -0.5640275600     1.0392715000     0.0000000000      4.623037985     -4.912414754     -0.000000000
       3
Lattice="15.0 0.0 0.0 0.0 15.0 0.0 0.0 0.0 15.0" Properties=species:S:1:pos:R:3:forces:R:3 energy=        1.2708898862 pbc="T T T"
       O     0.0238266900     0.0151534600     0.0000000000     -6.762613498      2.883772624     -0.000000000
       H     0.8913855000    -0.2890147600     0.0000000000      2.425387446      1.240872718     -0.000000000
       H    -0.5482263300     0.9774670700     0.0000000000      4.337226052     -4.124645343     -0.000000000
       3
Lattice="15.0 0.0 0.0 0.0 15.0 0.0 0.0 0.0 15.0" Properties=species:S:1:pos:R:3:forces:R:3 energy=        0.9317452939 pbc="T T T"
       O     0.0188103000     0.0190477600     0.0000000000     -2.469038010      0.441666521     -0.000000000
       H     0.9551980400    -0.2890155500     0.0000000000     -1.247867254      2.334994924     -0.000000000
       H    -0.5324251000     0.9156626400     0.0000000000      3.716905264     -2.776661444     -0.000000000
       3
Lattice="15.0 0.0 0.0 0.0 15.0 0.0 0.0 0.0 15.0" Properties=species:S:1:pos:R:3:forces:R:3 energy=        0.9317720889 pbc="T T T"
       O     0.0137939000     0.0229420600     0.0000000000      1.038292165     -2.281170191     -0.000000000
       H     1.0190105800    -0.2890163300     0.0000000000     -3.610309385      2.913043619     -0.000000000
       H    -0.5166238700     0.8538582100     0.0000000000      2.572017168     -0.631873428     -0.000000000
       3
Lattice="15.0 0.0 0.0 0.0 15.0 0.0 0.0 0.0 15.0" Properties=species:S:1:pos:R:3:forces:R:3 energy=        1.2708958210 pbc="T T T"
       O     0.0087775100     0.0268363600     0.0000000000      4.467103487     -5.834106256     -0.000000000
       H     1.0828231200    -0.2890171100     0.0000000000     -5.070203069      3.180007248     -0.000000000
       H    -0.5008226400     0.7920537800     0.0000000000      0.603099582      2.654099007     -0.000000000
       3
Lattice="15.0 0.0 0.0 0.0 15.0 0.0 0.0 0.0 15.0" Properties=species:S:1:pos:R:3:forces:R:3 energy=        2.0082506251 pbc="T T T"
       O     0.0037611100     0.0307306600     0.0000000000      8.570064135    -10.840601164     -0.000000000
       H     1.1466356500    -0.2890178900     0.0000000000     -5.904095213      3.261486369     -0.000000000
       H    -0.4850214200     0.7302493500     0.0000000000     -2.665968922      7.579114795     -0.000000000
       3
Lattice="15.0 0.0 0.0 0.0 15.0 0.0 0.0 0.0 15.0" Properties=species:S:1:pos:R:3:forces:R:3 energy=        3.2711577601 pbc="T T T"
       O    -0.0012552800     0.0346249600     0.0000000000     14.301054553    -18.088941581     -0.000000000
       H     1.2104481900    -0.2890186800     0.0000000000     -6.299181242      3.233931740     -0.000000000
       H    -0.4692201900     0.6684449200     0.0000000000     -8.001873260     14.855009841     -0.000000000
       3
Lattice="15.0 0.0 0.0 0.0 15.0 0.0 0.0 0.0 15.0" Properties=species:S:1:pos:R:3:forces:R:3 energy=        5.2742991917 pbc="T T T"
       O    -0.0062716800     0.0385192700     0.0000000000     23.036938465    -28.628765956     -0.000000000
       H     1.2742607300    -0.2890194600     0.0000000000     -6.381630646      3.142522449     -0.000000000
       H    -0.4534189600     0.6066404900     0.0000000000    -16.655307820     25.486243507     -0.000000000
       3
Lattice="15.0 0.0 0.0 0.0 15.0 0.0 0.0 0.0 15.0" Properties=species:S:1:pos:R:3:forces:R:3 energy=        4.1931811006 pbc="T T T"
       O     0.0361669500    -0.0000196400     0.0000000000    -21.748924908      9.319767009     -0.000000000
       H     0.7624721400    -0.2931816300     0.0000000000     17.402788437     -4.253004489     -0.000000000
       H    -0.6151617100     1.2224418600     0.0000000000      4.346136471     -5.066762520     -0.000000000
       3
Lattice="15.0 0.0 0.0 0.0 15.0 0.0 0.0 0.0 15.0" Properties=species:S:1:pos:R:3:forces:R:3 energy=        2.8741120296 pbc="T T T"
       O     0.0311505600     0.0038746600     0.0000000000    -13.283311683      5.954669762     -0.000000000
       H     0.8262846700    -0.2931824100     0.0000000000      8.770747882     -0.799590166     -0.000000000
       H    -0.5993604800     1.1606374300     0.0000000000      4.512563852     -5.155079596     -0.000000000
       3
Lattice="15.0 0.0 0.0 0.0 15.0 0.0 0.0 0.0 15.0" Properties=species:S:1:pos:R:3:forces:R:3 energy=        2.0524655926 pbc="T T T"
       O     0.0261341600     0.0077689600     0.0000000000     -7.602743913      3.838493664     -0.000000000
       H     0.8900972100    -0.2931831900     0.0000000000      3.017643447      1.190350466     -0.000000000
       H    -0.5835592500     1.0988330000     0.0000000000      4.585100466     -5.028844130     -0.000000000
       3
Lattice="15.0 0.0 0.0 0.0 15.0 0.0 0.0 0.0 15.0" Properties=species:S:1:pos:R:3:forces:R:3 energy=        1.5778473028 pbc="T T T"
       O     0.0211177700     0.0116632600     0.0000000000     -3.748297369      2.307530850     -0.000000000
       H     0.9539097500    -0.2931839800     0.0000000000     -0.767615655      2.303799252     -0.000000000
       H    -0.5677580200     1.0370285700     0.0000000000      4.515913024     -4.611330050     -0.000000000
       3
Lattice="15.0 0.0 0.0 0.0 15.0 0.0 0.0 0.0 15.0" Properties=species:S:1:pos:R:3:forces:R:3 energy=        1.3612275026 pbc="T T T"
       O     0.0161013700     0.0155575600     0.0000000000     -1.021418933      0.898671993     -0.000000000
       H     1.0177222900    -0.2931847600     0.0000000000     -3.205295911      2.889348218     -0.000000000
       H    -0.5519567900     0.9752241400     0.0000000000      4.226714844     -3.788020263     -0.000000000
       3
Lattice="15.0 0.0 0.0 0.0 15.0 0.0 0.0 0.0 15.0" Properties=species:S:1:pos:R:3:forces:R:3 energy=        1.3612641944 pbc="T T T"
       O     0.0110849800     0.0194518600     0.0000000000      1.122291071     -0.765409956     -0.000000000
       H     1.0815348300    -0.2931855400     0.0000000000     -4.716236302      3.156479587     -0.000000000
       H    -0.5361555600     0.9134197100     0.0000000000      3.593945231     -2.391069630     -0.000000000
       3
Lattice="15.0 0.0 0.0 0.0 15.0 0.0 0.0 0.0 15.0" Properties=species:S:1:pos:R:3:forces:R:3 energy=        1.5778987160 pbc="T T T"
       O     0.0060685800     0.0233461700     0.0000000000      3.162156585     -3.056779821     -0.000000000
       H     1.1453473700    -0.2931863200     0.0000000000     -5.585784830      3.232666243     -0.000000000
       H    -0.5203543400     0.8516152700     0.0000000000      2.423628245     -0.175886422     -0.000000000
       3
Lattice="15.0 0.0 0.0 0.0 15.0 0.0 0.0 0.0 15.0" Properties=species:S:1:pos:R:3:forces:R:3 energy=        2.0523421319 pbc="T T T"
       O     0.0010521900     0.0272404700     0.0000000000      5.598405661     -6.408982722     -0.000000000
       H     1.2091599000    -0.2931871100     0.0000000000     -6.007354108      3.196094957     -0.000000000
       H    -0.5045531100     0.7898108400     0.0000000000      0.408948446      3.212887765     -0.000000000
       3
Lattice="15.0 0.0 0.0 0.0 15.0 0.0 0.0 0.0 15.0" Properties=species:S:1:pos:R:3:forces:R:3 energy=        2.8734501235 pbc="T T T"
       O    -0.0039642100     0.0311347700     0.0000000000      9.052224419    -11.383337026     -0.000000000
       H     1.2729724400    -0.2931878900     0.0000000000     -6.111420483      3.094247291     -0.000000000
       H    -0.4887518800     0.7280064100     0.0000000000     -2.940803936      8.289089735     -0.000000000
       3
Lattice="15.0 0.0 0.0 0.0 15.0 0.0 0.0 0.0 15.0" Properties=species:S:1:pos:R:3:forces:R:3 energy=        4.1913619895 pbc="T T T"
       O    -0.0089806000     0.0350290700     0.0000000000     14.403033089    -18.743279109     -0.000000000
       H     1.3367849800    -0.2931886700     0.0000000000     -5.984239879      2.954431355     -0.000000000
       H    -0.4729506500     0.6662019800     0.0000000000     -8.418793209     15.788847805     -0.000000000
       3
Lattice="15.0 0.0 0.0 0.0 15.0 0.0 0.0 0.0 15.0" Properties=species:S:1:pos:R:3:forces:R:3 energy=        3.7066722270 pbc="T T T"
       O     0.0334580300    -0.0035098400     0.0000000000    -13.502316039      5.587688064     -0.000000000
       H     0.8249963900    -0.2973508400     0.0000000000      9.506132893     -0.951960599     -0.000000000
       H    -0.6346934000     1.2820033600     0.0000000000      3.996183146     -4.635727465     -0.000000000
       3
Lattice="15.0 0.0 0.0 0.0 15.0 0.0 0.0 0.0 15.0" Properties=species:S:1:pos:R:3:forces:R:3 energy=        2.8723076236 pbc="T T T"
       O     0.0284416300     0.0003844600     0.0000000000     -7.821764107      3.758508253     -0.000000000
       H     0.8888089200    -0.2973516200     0.0000000000      3.589902992      1.101168111     -0.000000000
       H    -0.6188921700     1.2201989300     0.0000000000      4.231861115     -4.859676312     -0.000000000
       3
Lattice="15.0 0.0 0.0 0.0 15.0 0.0 0.0 0.0 15.0" Properties=species:S:1:pos:R:3:forces:R:3 energy=        2.3632762939 pbc="T T T"
       O     0.0234252400     0.0042787600     0.0000000000     -4.096935265      2.675917913     -0.000000000
       H     0.9526214600    -0.2973524100     0.0000000000     -0.304842425      2.246948071     -0.000000000
       H    -0.6030909400     1.1583945000     0.0000000000      4.401777690     -4.922866036     -0.000000000
       3
Lattice="15.0 0.0 0.0 0.0 15.0 0.0 0.0 0.0 15.0" Properties=species:S:1:pos:R:3:forces:R:3 energy=        2.0748964823 pbc="T T T"