       3
Lattice="15.0 0.0 0.0 0.0 15.0 0.0 0.0 0.0 15.0" Properties=species:S:1:pos:R:3:forces:R:3 energy=       23.1115507372 pbc="T T T"
       O     0.0497115800     0.0174313400     0.0000000000   -147.590182708    105.360092779     -0.000000000
       H     0.4498508900    -0.2723355600     0.0000000000    143.417218241   -100.825168187     -0.000000000
       H    -0.5175032500     0.9246343600     0.0000000000      4.172964467     -4.534924592     -0.000000000
       3
Lattice="15.0 0.0 0.0 0.0 15.0 0.0 0.0 0.0 15.0" Properties=species:S:1:pos:R:3:forces:R:3 energy=       17.7332500201 pbc="T T T"
       O     0.0468898600     0.0196218800     0.0000000000   -118.934185774     77.434066419     -0.000000000
       H     0.4857454500    -0.2723360000     0.0000000000    115.250714174    -73.874441317     -0.000000000
       H    -0.5086150600     0.8898693700     0.0000000000      3.683471600     -3.559625102     -0.000000000
       3
Lattice="15.0 0.0 0.0 0.0 15.0 0.0 0.0 0.0 15.0" Properties=species:S:1:pos:R:3:forces:R:3 energy=       13.4545087571 pbc="T T T"
       O     0.0440681300     0.0218124300     0.0000000000    -94.648221052     56.190635749     -0.000000000
       H     0.5216400000    -0.2723364400     0.0000000000     91.652788605    -53.868676273     -0.000000000
       H    -0.4997268700     0.8551043800     0.0000000000      2.995432448     -2.321959527     -0.000000000
       3
Lattice="15.0 0.0 0.0 0.0 15.0 0.0 0.0 0.0 15.0" Properties=species:S:1:pos:R:3:forces:R:3 energy=       10.1073040168 pbc="T T T"
       O     0.0412464100     0.0240029700     0.0000000000    -74.204861345     39.783211804     -0.000000000
       H     0.5575345500    -0.2723368800     0.0000000000     72.148414470    -39.023202298     -0.000000000
       H    -0.4908386800     0.8203393900     0.0000000000      2.056446875     -0.760009506     -0.000000000
       3
Lattice="15.0 0.0 0.0 0.0 15.0 0.0 0.0 0.0 15.0" Properties=species:S:1:pos:R:3:forces:R:3 energy=        7.5508841296 pbc="T T T"
       O     0.0384246900     0.0261935200     0.0000000000    -56.966490611     26.796025422     -0.000000000
       H     0.5934291100    -0.2723373200     0.0000000000     56.172230344    -27.999399972     -0.000000000
       H    -0.4819504900     0.7855744000     0.0000000000      0.794260318      1.203374549     -0.000000000
       3
Lattice="15.0 0.0 0.0 0.0 15.0 0.0 0.0 0.0 15.0" Properties=species:S:1:pos:R:3:forces:R:3 energy=        5.6732066599 pbc="T T T"
       O     0.0356029700     0.0283840600     0.0000000000    -42.278073370     16.140222591     -0.000000000
       H     0.6293236600    -0.2723377600     0.0000000000     43.164749104    -19.803508399     -0.000000000
       H    -0.4730622900     0.7508094000     0.0000000000     -0.886675683      3.663285808     -0.000000000
       3
Lattice="15.0 0.0 0.0 0.0 15.0 0.0 0.0 0.0 15.0" Properties=species:S:1:pos:R:3:forces:R:3 energy=        4.3899976024 pbc="T T T"
       O     0.0327812400     0.0305746100     0.0000000000    -29.509617985      6.967404378     -0.000000000
       H     0.6652182100    -0.2723382000     0.0000000000     32.618611228    -13.701354999     -0.000000000
       H    -0.4641741000     0.7160444100     0.0000000000     -3.108993243      6.733950621     -0.000000000
       3
Lattice="15.0 0.0 0.0 0.0 15.0 0.0 0.0 0.0 15.0" Properties=species:S:1:pos:R:3:forces:R:3 energy=        3.6429313812 pbc="T T T"
       O     0.0299595200     0.0327651500     0.0000000000    -18.065878518     -1.398384383     -0.000000000
       H     0.7011127600    -0.2723386400     0.0000000000     24.095236085     -9.151785550     -0.000000000
       H    -0.4552859100     0.6812794200     0.0000000000     -6.029357619     10.550169985     -0.000000000
       3
Lattice="15.0 0.0 0.0 0.0 15.0 0.0 0.0 0.0 15.0" Properties=species:S:1:pos:R:3:forces:R:3 energy=        3.3978287348 pbc="T T T"
       O     0.0271378000     0.0349557000     0.0000000000     -7.374745576     -9.514098740     -0.000000000
       H     0.7370073200    -0.2723390800     0.0000000000     17.225889565     -5.756875371     -0.000000000
       H    -0.4463977200     0.6465144300     0.0000000000     -9.851143990     15.270974111     -0.000000000
       3
Lattice="15.0 0.0 0.0 0.0 15.0 0.0 0.0 0.0 15.0" Properties=species:S:1:pos:R:3:forces:R:3 energy=        3.6434232678 pbc="T T T"
       O     0.0243160800     0.0371462400     0.0000000000      3.137174809    -17.860015950     -0.000000000
       H     0.7729018700    -0.2723395200     0.0000000000     11.705920688     -3.224930818     -0.000000000
       H    -0.4375095300     0.6117494300     0.0000000000    -14.843095497     21.084946768     -0.000000000
       3
Lattice="15.0 0.0 0.0 0.0 15.0 0.0 0.0 0.0 15.0" Properties=species:S:1:pos:R:3:forces:R:3 energy=        4.3909257257 pbc="T T T"
       O     0.0214943600     0.0393367900     0.0000000000     14.077334534    -26.872469035     -0.000000000
       H     0.8087964200    -0.2723399700     0.0000000000      7.285861880     -1.342300112     -0.000000000
       H    -0.4286213400     0.5769844400     0.0000000000    -21.363196414     28.214769095     -0.000000000
       3
Lattice="15.0 0.0 0.0 0.0 15.0 0.0 0.0 0.0 15.0" Properties=species:S:1:pos:R:3:forces:R:3 energy=        5.6744539074 pbc="T T T"
       O     0.0186726300     0.0415273300     0.0000000000     26.127050700    -36.967464431     -0.000000000
       H     0.8446909700    -0.2723404100     0.0000000000      3.761099720      0.048639381     -0.000000000
       H    -0.4197331500     0.5422194500     0.0000000000    -29.888150369     36.918824998     -0.000000000
       3
Lattice="15.0 0.0 0.0 0.0 15.0 0.0 0.0 0.0 15.0" Properties=species:S:1:pos:R:3:forces:R:3 energy=        7.5522632136 pbc="T T T"
       O     0.0158509100     0.0437178700     0.0000000000     40.088576780    -48.553890677     -0.000000000
       H     0.8805855300    -0.2723408500     0.0000000000      0.962061080      1.066254828     -0.000000000
       H    -0.4108449600     0.5074544600     0.0000000000    -41.050637860     47.487635850     -0.000000000
       3
Lattice="15.0 0.0 0.0 0.0 15.0 0.0 0.0 0.0 15.0" Properties=species:S:1:pos:R:3:forces:R:3 energy=       10.1085413648 pbc="T T T"
       O     0.0130291900     0.0459084200     0.0000000000     56.939733847    -62.031515939     -0.000000000
       H     0.9164800800    -0.2723412900     0.0000000000     -1.252488762      1.801034961     -0.000000000
       H    -0.4019567600     0.4726894700     0.0000000000    -55.687245034     60.230480978     -0.000000000
       3
Lattice="15.0 0.0 0.0 0.0 15.0 0.0 0.0 0.0 15.0" Properties=species:S:1:pos:R:3:forces:R:3 energy=       13.4552248302 pbc="T T T"
       O     0.0102074700     0.0480989600     0.0000000000     77.897416194    -77.764795905     -0.000000000
       H     0.9523746300    -0.2723417300     0.0000000000     -2.998605859      2.321976394     -0.000000000
       H    -0.3930685700     0.4379244700     0.0000000000    -74.898810335     75.442819511     -0.000000000
       3
Lattice="15.0 0.0 0.0 0.0 15.0 0.0 0.0 0.0 15.0" Properties=species:S:1:pos:R:3:forces:R:3 energy=       17.7329332986 pbc="T T T"
       O     0.0073857400     0.0502895100     0.0000000000    104.490850624    -96.020428096     -0.000000000
       H     0.9882691800    -0.2723421700     0.0000000000     -4.369323308      2.679987920     -0.000000000
       H    -0.3841803800     0.4031594800     0.0000000000   -100.121527316     93.340440176     -0.000000000
       3
Lattice="15.0 0.0 0.0 0.0 15.0 0.0 0.0 0.0 15.0" Properties=species:S:1:pos:R:3:forces:R:3 energy=       23.1095350048 pbc="T T T"
       O     0.0045640200     0.0524800500     0.0000000000    138.639362183   -116.852047858     -0.000000000
       H     1.0241637400    -0.2723426100     0.0000000000     -5.438225807      2.910611560     -0.000000000
       H    -0.3752921900     0.3683944900     0.0000000000   -133.201136427    113.941436298     -0.000000000
       3
Lattice="15.0 0.0 0.0 0.0 15.0 0.0 0.0 0.0 15.0" Properties=species:S:1:pos:R:3:forces:R:3 energy=       18.3542776294 pbc="T T T"
       O     0.0481313700     0.0153953900     0.0000000000   -121.508464743     79.371411563     -0.000000000
       H     0.4863233700    -0.2747676000     0.0000000000    117.003121529    -74.364703973     -0.000000000
       H    -0.5288967400     0.9593785700     0.0000000000      4.505343265     -5.006707590     -0.000000000
       3
Lattice="15.0 0.0 0.0 0.0 15.0 0.0 0.0 0.0 15.0" Properties=species:S:1:pos:R:3:forces:R:3 energy=       13.9403582580 pbc="T T T"
       O     0.0453096500     0.0175859400     0.0000000000    -97.201314635     58.442170825     -0.000000000
       H     0.5222179300    -0.2747680400     0.0000000000     93.049008375    -54.187276265     -0.000000000
       H    -0.5200085500     0.9246135800     0.0000000000      4.152306260     -4.254894559     -0.000000000
       3
Lattice="15.0 0.0 0.0 0.0 15.0 0.0 0.0 0.0 15.0" Properties=species:S:1:pos:R:3:forces:R:3 energy=       10.4461272454 pbc="T T T"
       O     0.0424879300     0.0197764800     0.0000000000    -76.915624819     42.514934972     -0.000000000
       H     0.5581124800    -0.2747684800     0.0000000000     73.270086727    -39.230065334     -0.000000000
       H    -0.5111203600     0.8898485900     0.0000000000      3.645538091     -3.284869586     -0.000000000
       3
Lattice="15.0 0.0 0.0 0.0 15.0 0.0 0.0 0.0 15.0" Properties=species:S:1:pos:R:3:forces:R:3 energy=        7.7221824794 pbc="T T T"
       O     0.0396662100     0.0219670300     0.0000000000    -60.028814452     30.178827603     -0.000000000
       H     0.5940070300    -0.2747689200     0.0000000000     57.084856748    -28.132844608     -0.000000000
       H    -0.5022321600     0.8550835900     0.0000000000      2.943957704     -2.045982994     -0.000000000
       3
Lattice="15.0 0.0 0.0 0.0 15.0 0.0 0.0 0.0 15.0" Properties=species:S:1:pos:R:3:forces:R:3 energy=        5.6469477378 pbc="T T T"
       O     0.0368444800     0.0241575700     0.0000000000    -45.911561415     20.363634594     -0.000000000
       H     0.6299015800    -0.2747693600     0.0000000000     43.919482961    -19.888140053     -0.000000000
       H    -0.4933439700     0.8203186000     0.0000000000      1.992078506     -0.475494541     -0.000000000
       3
Lattice="15.0 0.0 0.0 0.0 15.0 0.0 0.0 0.0 15.0" Properties=species:S:1:pos:R:3:forces:R:3 energy=        4.1253648191 pbc="T T T"
       O     0.0340227600     0.0263481100     0.0000000000    -33.970617464     12.249572429     -0.000000000
       H     0.6657961400    -0.2747698000     0.0000000000     33.254040545    -13.753942260     -0.000000000
       H    -0.4844557800     0.7855536100     0.0000000000      0.716576919      1.504369831     -0.000000000
       3
Lattice="15.0 0.0 0.0 0.0 15.0 0.0 0.0 0.0 15.0" Properties=species:S:1:pos:R:3:forces:R:3 energy=        3.0867297098 pbc="T T T"
       O     0.0312010400     0.0285386600     0.0000000000    -23.661944217      5.195919429     -0.000000000
       H     0.7016906900    -0.2747702500     0.0000000000     24.639674790     -9.184669101     -0.000000000
       H    -0.4755675900     0.7507886200     0.0000000000     -0.977730573      3.988749672     -0.000000000
       3
Lattice="15.0 0.0 0.0 0.0 15.0 0.0 0.0 0.0 15.0" Properties=species:S:1:pos:R:3:forces:R:3 energy=        2.4824654082 pbc="T T T"
       O     0.0283793200     0.0307292000     0.0000000000    -14.486773341     -1.312931724     -0.000000000
       H     0.7375852400    -0.2747706900     0.0000000000     17.699987842     -5.778932464     -0.000000000
       H    -0.4666794000     0.7160236300     0.0000000000     -3.213214501      7.091864188     -0.000000000
       3
Lattice="15.0 0.0 0.0 0.0 15.0 0.0 0.0 0.0 15.0" Properties=species:S:1:pos:R:3:forces:R:3 energy=        2.2842527800 pbc="T T T"
       O     0.0255575900     0.0329197500     0.0000000000     -5.977045878     -7.707886655     -0.000000000
       H     0.7734797900    -0.2747711300     0.0000000000     12.124831907     -3.241326339     -0.000000000
       H    -0.4577912100     0.6812586300     0.0000000000     -6.147786029     10.949213046     -0.000000000
       3
Lattice="15.0 0.0 0.0 0.0 15.0 0.0 0.0 0.0 15.0" Properties=species:S:1:pos:R:3:forces:R:3 energy=        2.4827821433 pbc="T T T"
       O     0.0227358700     0.0351102900     0.0000000000      2.327055816    -14.367000809     -0.000000000
       H     0.8093743500    -0.2747715700     0.0000000000      7.660883267     -1.354544071     -0.000000000
       H    -0.4489030200     0.6464936400     0.0000000000     -9.987939135     15.721544880     -0.000000000
       3
Lattice="15.0 0.0 0.0 0.0 15.0 0.0 0.0 0.0 15.0" Properties=species:S:1:pos:R:3:forces:R:3 energy=        3.0873117886 pbc="T T T"
       O     0.0199141500     0.0373008400     0.0000000000     10.905780717    -21.641949483     -0.000000000
       H     0.8452689000    -0.2747720100     0.0000000000      4.101084411      0.041673282     -0.000000000
       H    -0.4400148300     0.6117286500     0.0000000000    -15.006865127     21.600276200     -0.000000000
       3
Lattice="15.0 0.0 0.0 0.0 15.0 0.0 0.0 0.0 15.0" Properties=species:S:1:pos:R:3:forces:R:3 energy=        4.1261046287 pbc="T T T"
       O     0.0170924300     0.0394913800     0.0000000000     20.292513271    -29.879217016     -0.000000000
       H     0.8811634500    -0.2747724500     0.0000000000      1.274912083      1.066747760     -0.000000000
       H    -0.4311266300     0.5769636600     0.0000000000    -21.567425354     28.812469256     -0.000000000
       3
Lattice="15.0 0.0 0.0 0.0 15.0 0.0 0.0 0.0 15.0" Properties=species:S:1:pos:R:3:forces:R:3 energy=        5.6476734491 pbc="T T T"
       O     0.0142707000     0.0416819300     0.0000000000     31.110216642    -39.434001682     -0.000000000
       H     0.9170580000    -0.2747728900     0.0000000000     -0.958729700      1.810930576     -0.000000000
       H    -0.4222384400     0.5421986700     0.0000000000    -30.151486942     37.623071158     -0.000000000
       3
Lattice="15.0 0.0 0.0 0.0 15.0 0.0 0.0 0.0 15.0" Properties=species:S:1:pos:R:3:forces:R:3 energy=        7.7226431491 pbc="T T T"
       O     0.0114489800     0.0438724700     0.0000000000     44.114161996    -50.674278502     -0.000000000
       H     0.9529525600    -0.2747733300     0.0000000000     -2.715719740      2.342844917     -0.000000000
       H    -0.4133502500     0.5074336700     0.0000000000    -41.398442256     48.331433585     -0.000000000
       3
Lattice="15.0 0.0 0.0 0.0 15.0 0.0 0.0 0.0 15.0" Properties=species:S:1:pos:R:3:forces:R:3 energy=       10.4459745406 pbc="T T T"
       O     0.0086272600     0.0460630200     0.0000000000     60.245178131    -63.971292319     -0.000000000
       H     0.9888471100    -0.2747737700     0.0000000000     -4.089737304      2.714233847     -0.000000000
       H    -0.4044620600     0.4726686800     0.0000000000    -56.155440878     61.257058472     -0.000000000
       3
Lattice="15.0 0.0 0.0 0.0 15.0 0.0 0.0 0.0 15.0" Properties=species:S:1:pos:R:3:forces:R:3 energy=       13.9391217074 pbc="T T T"
       O     0.0058055400     0.0482535600     0.0000000000     80.695521523    -79.669203042     -0.000000000
       H     1.0247416600    -0.2747742100     0.0000000000     -5.155560238      2.963293026     -0.000000000
       H    -0.3955738700     0.4379036900     0.0000000000    -75.539961336     76.705910068     -0.000000000
       3
Lattice="15.0 0.0 0.0 0.0 15.0 0.0 0.0 0.0 15.0" Properties=species:S:1:pos:R:3:forces:R:3 energy=       18.3513372296 pbc="T T T"
       O     0.0029838200     0.0504441000     0.0000000000    106.985716818    -98.021413936     -0.000000000
       H     1.0606362200    -0.2747746500     0.0000000000     -5.972832455      3.117297961     -0.000000000
       H    -0.3866856800     0.4031387000     0.0000000000   -101.012884414     94.904115974     -0.000000000
       3
Lattice="15.0 0.0 0.0 0.0 15.0 0.0 0.0 0.0 15.0" Properties=species:S:1:pos:R:3:forces:R:3 energy=       14.5544331051 pbc="T T T"
       O     0.0465511700     0.0133594400     0.0000000000    -99.159896331     59.809258542     -0.000000000
       H     0.5227958500    -0.2771996400     0.0000000000     94.446942043    -54.481639691     -0.000000000
       H    -0.5402902200     0.9941227800     0.0000000000      4.712954287     -5.327618851     -0.000000000
       3
Lattice="15.0 0.0 0.0 0.0 15.0 0.0 0.0 0.0 15.0" Properties=species:S:1:pos:R:3:forces:R:3 energy=       10.9563168032 pbc="T T T"
       O     0.0437294400     0.0155499900     0.0000000000    -78.858648916     44.176627337     -0.000000000
       H     0.5586904000    -0.2772000800     0.0000000000     74.389494561    -39.415809576     -0.000000000
       H    -0.5314020300     0.9593577900     0.0000000000      4.469154354     -4.760817760     -0.000000000
       3
Lattice="15.0 0.0 0.0 0.0 15.0 0.0 0.0 0.0 15.0" Properties=species:S:1:pos:R:3:forces:R:3 energy=        8.1181912193 pbc="T T T"
       O     0.0409077200     0.0177405300     0.0000000000    -62.097437769     32.261188587     -0.000000000
       H     0.5945849600    -0.2772005200     0.0000000000     57.991564214    -28.249355694     -0.000000000
       H    -0.5225138400     0.9245927900     0.0000000000      4.105873555     -4.011832893     -0.000000000
       3
Lattice="15.0 0.0 0.0 0.0 15.0 0.0 0.0 0.0 15.0" Properties=species:S:1:pos:R:3:forces:R:3 energy=        5.9115523709 pbc="T T T"
       O     0.0380860000     0.0199310800     0.0000000000    -48.256040320     22.999761582     -0.000000000
       H     0.6304795100    -0.2772009700     0.0000000000     44.665183293    -19.960594494     -0.000000000
       H    -0.5136256500     0.8898278000     0.0000000000      3.590857026     -3.039167139     -0.000000000
       3
Lattice="15.0 0.0 0.0 0.0 15.0 0.0 0.0 0.0 15.0" Properties=species:S:1:pos:R:3:forces:R:3 energy=        4.2337393884 pbc="T T T"
       O     0.0352642800     0.0221216200     0.0000000000    -36.760118850     15.590022453     -0.000000000
       H     0.6663740600    -0.2772014100     0.0000000000     33.878771805    -13.798295867     -0.000000000
       H    -0.5047374600     0.8550628100     0.0000000000      2.881346993     -1.791726534     -0.000000000
       3
Lattice="15.0 0.0 0.0 0.0 15.0 0.0 0.0 0.0 15.0" Properties=species:S:1:pos:R:3:forces:R:3 energy=        3.0053827544 pbc="T T T"
       O     0.0324425500     0.0243121700     0.0000000000    -27.094835265      9.417648027     -0.000000000
       H     0.7022686100    -0.2772018500     0.0000000000     25.173713943     -9.211371666     -0.000000000
       H    -0.4958492700     0.8202978200     0.0000000000      1.921121321     -0.206276362     -0.000000000
       3
Lattice="15.0 0.0 0.0 0.0 15.0 0.0 0.0 0.0 15.0" Properties=species:S:1:pos:R:3:forces:R:3 energy=        2.1678237057 pbc="T T T"
       O     0.0296208300     0.0265027100     0.0000000000    -18.802162130      4.000174580     -0.000000000
       H     0.7381631700    -0.2772022900     0.0000000000     18.165368173     -5.795318421     -0.000000000
       H    -0.4869610800     0.7855328300     0.0000000000      0.636794008      1.795143840     -0.000000000
       3
Lattice="15.0 0.0 0.0 0.0 15.0 0.0 0.0 0.0 15.0" Properties=species:S:1:pos:R:3:forces:R:3 energy=        1.6808920651 pbc="T T T"
       O     0.0267991100     0.0286932600     0.0000000000    -11.470073695     -1.054960429     -0.000000000
       H     0.7740577200    -0.2772027300     0.0000000000     12.536782426     -3.252515889     -0.000000000
       H    -0.4780728900     0.7507678300     0.0000000000     -1.066708731      4.307476369     -0.000000000
       3
Lattice="15.0 0.0 0.0 0.0 15.0 0.0 0.0 0.0 15.0" Properties=species:S:1:pos:R:3:forces:R:3 energy=        1.5212075566 pbc="T T T"
       O     0.0239773900     0.0308838000     0.0000000000     -4.717398801     -6.081307605     -0.000000000
       H     0.8099522700    -0.2772031700     0.0000000000      8.029576961     -1.363399006     -0.000000000
       H    -0.4691846900     0.7160028400     0.0000000000     -3.312178211      7.444706611     -0.000000000
       3
Lattice="15.0 0.0 0.0 0.0 15.0 0.0 0.0 0.0 15.0" Properties=species:S:1:pos:R:3:forces:R:3 energy=        1.6810887843 pbc="T T T"
       O     0.0211556700     0.0330743400     0.0000000000      1.825323824    -11.377388005     -0.000000000
       H     0.8458468300    -0.2772036100     0.0000000000      4.433787991      0.034478304     -0.000000000
       H    -0.4602965000     0.6812378500     0.0000000000     -6.259111814     11.342909701     -0.000000000
       3
Lattice="15.0 0.0 0.0 0.0 15.0 0.0 0.0 0.0 15.0" Properties=species:S:1:pos:R:3:forces:R:3 energy=        2.1681704903 pbc="T T T"
       O     0.0183339400     0.0352648900     0.0000000000      8.538873143    -17.227071091     -0.000000000
       H     0.8817413800    -0.2772040500     0.0000000000      1.577931904      1.061963655     -0.000000000
       H    -0.4514083100     0.6464728600     0.0000000000    -10.116805046     16.165107436     -0.000000000
       3
Lattice="15.0 0.0 0.0 0.0 15.0 0.0 0.0 0.0 15.0" Properties=species:S:1:pos:R:3:forces:R:3 energy=        3.0057815753 pbc="T T T"
       O     0.0155122200     0.0374554300     0.0000000000     15.840770898    -23.916823707     -0.000000000
       H     0.9176359300    -0.2772044900     0.0000000000     -0.678948704      1.809794765     -0.000000000
       H    -0.4425201200     0.6117078700     0.0000000000    -15.161822194     22.107028943     -0.000000000
       3
Lattice="15.0 0.0 0.0 0.0 15.0 0.0 0.0 0.0 15.0" Properties=species:S:1:pos:R:3:forces:R:3 energy=        4.2340343245 pbc="T T T"
       O     0.0126905000     0.0396459800     0.0000000000     24.213273636    -31.748328392     -0.000000000
       H     0.9535304800    -0.2772049300     0.0000000000     -2.452480972      2.346557026     -0.000000000
       H    -0.4336319300     0.5769428700     0.0000000000    -21.760792663     29.401771366     -0.000000000
       3
Lattice="15.0 0.0 0.0 0.0 15.0 0.0 0.0 0.0 15.0" Properties=species:S:1:pos:R:3:forces:R:3 energy=        5.9115160192 pbc="T T T"
       O     0.0098687800     0.0418365200     0.0000000000     34.237015605    -41.045481356     -0.000000000
       H     0.9894250400    -0.2772053700     0.0000000000     -3.836465577      2.724017671     -0.000000000
       H    -0.4247437400     0.5421778800     0.0000000000    -30.400550028     38.321463685     -0.000000000
       3
Lattice="15.0 0.0 0.0 0.0 15.0 0.0 0.0 0.0 15.0" Properties=species:S:1:pos:R:3:forces:R:3 energy=        8.1175078135 pbc="T T T"
       O     0.0070470500     0.0440270700     0.0000000000     46.634328422    -52.154478614     -0.000000000
       H     1.0253195900    -0.2772058100     0.0000000000     -4.906200600      2.980952605     -0.000000000
       H    -0.4158555500     0.5074128900     0.0000000000    -41.728127822     49.173525958     -0.000000000
       3
Lattice="15.0 0.0 0.0 0.0 15.0 0.0 0.0 0.0 15.0" Properties=species:S:1:pos:R:3:forces:R:3 energy=       10.9545577096 pbc="T T T"
       O     0.0042253300     0.0462176100     0.0000000000     62.324264145    -65.432540873     -0.000000000
       H     1.0612141400    -0.2772062500     0.0000000000     -5.721936479      3.146100347     -0.000000000
       H    -0.4069673600     0.4726479000     0.0000000000    -56.602327666     62.286440526     -0.000000000
       3
Lattice="15.0 0.0 0.0 0.0 15.0 0.0 0.0 0.0 15.0" Properties=species:S:1:pos:R:3:forces:R:3 energy=       14.5510333826 pbc="T T T"
       O     0.0014036100     0.0484081600     0.0000000000     82.489823841    -81.216769020     -0.000000000
       H     1.0971086900    -0.2772066900     0.0000000000     -6.332115135      3.240412929     -0.000000000
       H    -0.3980791600     0.4378829100     0.0000000000    -76.157708706     77.976356092     -0.000000000
       3
Lattice="15.0 0.0 0.0 0.0 15.0 0.0 0.0 0.0 15.0" Properties=species:S:1:pos:R:3:forces:R:3 energy=       11.5605815103 pbc="T T T"
       O     0.0449709600     0.0113235000     0.0000000000    -80.331050508     45.104985918     -0.000000000
       H     0.5592683300    -0.2796316900     0.0000000000     75.509668482    -39.584125124     -0.000000000
       H    -0.5516837100     1.0288669900     0.0000000000      4.821382027     -5.520860793     -0.000000000
       3
Lattice="15.0 0.0 0.0 0.0 15.0 0.0 0.0 0.0 15.0" Properties=species:S:1:pos:R:3:forces:R:3 energy=        8.6438071241 pbc="T T T"
       O     0.0421492400     0.0135140400     0.0000000000    -63.561146613     33.457443492     -0.000000000
       H     0.5951628800    -0.2796321300     0.0000000000     58.895834118    -28.349977715     -0.000000000
       H    -0.5427955200     0.9941019900     0.0000000000      4.665312494     -5.107465777     -0.000000000
       3
Lattice="15.0 0.0 0.0 0.0 15.0 0.0 0.0 0.0 15.0" Properties=species:S:1:pos:R:3:forces:R:3 energy=        6.3495261239 pbc="T T T"
       O     0.0393275100     0.0157045800     0.0000000000    -49.821415207     24.560750833     -0.000000000
       H     0.6310574300    -0.2796325700     0.0000000000     45.405233110    -20.019212949     -0.000000000
       H    -0.5339073300     0.9593370000     0.0000000000      4.416182045     -4.541537833     -0.000000000
       3
Lattice="15.0 0.0 0.0 0.0 15.0 0.0 0.0 0.0 15.0" Properties=species:S:1:pos:R:3:forces:R:3 energy=        4.5695491356 pbc="T T T"
       O     0.0365057900     0.0178951300     0.0000000000    -38.543254399     17.620533621     -0.000000000
       H     0.6669519900    -0.2796330100     0.0000000000     34.494557320    -13.831383975     -0.000000000
       H    -0.5250191400     0.9245720100     0.0000000000      4.048697079     -3.789149646     -0.000000000
       3
Lattice="15.0 0.0 0.0 0.0 15.0 0.0 0.0 0.0 15.0" Properties=species:S:1:pos:R:3:forces:R:3 energy=        3.2184496537 pbc="T T T"
       O     0.0336840700     0.0200856700     0.0000000000    -29.225744408     12.037937115     -0.000000000
       H     0.7028465400    -0.2796334500     0.0000000000     25.696000990     -9.229315814     -0.000000000
       H    -0.5161309500     0.8898070200     0.0000000000      3.529743418     -2.808621300     -0.000000000
       3
Lattice="15.0 0.0 0.0 0.0 15.0 0.0 0.0 0.0 15.0" Properties=species:S:1:pos:R:3:forces:R:3 energy=        2.2306410270 pbc="T T T"
       O     0.0308623500     0.0222762200     0.0000000000    -21.433531546      7.353169022     -0.000000000
       H     0.7387410900    -0.2796338900     0.0000000000     18.617518629     -5.804662431     -0.000000000
       H    -0.5072427500     0.8550420300     0.0000000000      2.816012917     -1.548506591     -0.000000000
       3
Lattice="15.0 0.0 0.0 0.0 15.0 0.0 0.0 0.0 15.0" Properties=species:S:1:pos:R:3:forces:R:3 energy=        1.5578241147 pbc="T T T"
       O     0.0280406300     0.0244667600     0.0000000000    -14.786826621      3.202793147     -0.000000000
       H     0.7746356500    -0.2796343300     0.0000000000     12.935874697     -3.257481411     -0.000000000
       H    -0.4983545600     0.8202770300     0.0000000000      1.850951924      0.054688264     -0.000000000
       3
Lattice="15.0 0.0 0.0 0.0 15.0 0.0 0.0 0.0 15.0" Properties=species:S:1:pos:R:3:forces:R:3 energy=        1.1669624410 pbc="T T T"
       O     0.0252189000     0.0266573100     0.0000000000     -8.948246901     -0.712191747     -0.000000000
       H     0.8105302000    -0.2796347700     0.0000000000      8.387236348     -1.366668217     -0.000000000
       H    -0.4894663700     0.7855120400     0.0000000000      0.561010552      2.078859963     -0.000000000
       3
Lattice="15.0 0.0 0.0 0.0 15.0 0.0 0.0 0.0 15.0" Properties=species:S:1:pos:R:3:forces:R:3 energy=        1.0388224760 pbc="T T T"
       O     0.0223971800     0.0288478500     0.0000000000     -3.608428776     -4.650136705     -0.000000000
       H     0.8464247500    -0.2796352100     0.0000000000      4.757496716      0.031488881     -0.000000000
       H    -0.4805781800     0.7507470500     0.0000000000     -1.149067940      4.618647824     -0.000000000
       3
Lattice="15.0 0.0 0.0 0.0 15.0 0.0 0.0 0.0 15.0" Properties=species:S:1:pos:R:3:forces:R:3 energy=        1.1670804405 pbc="T T T"
       O     0.0195754600     0.0310384000     0.0000000000      1.529728993     -8.847163212     -0.000000000
       H     0.8823193000    -0.2796356500     0.0000000000      1.873011382      1.058873187     -0.000000000
       H    -0.4716899900     0.7159820600     0.0000000000     -3.402740375      7.788290025     -0.000000000
       3
Lattice="15.0 0.0 0.0 0.0 15.0 0.0 0.0 0.0 15.0" Properties=species:S:1:pos:R:3:forces:R:3 energy=        1.5580176992 pbc="T T T"
       O     0.0167537400     0.0332289400     0.0000000000      6.768608645    -13.532518288     -0.000000000
       H     0.9182138600    -0.2796360900     0.0000000000     -0.407598822      1.806828687     -0.000000000
       H    -0.4628018000     0.6812170700     0.0000000000     -6.361009823     11.725689652     -0.000000000
       3
Lattice="15.0 0.0 0.0 0.0 15.0 0.0 0.0 0.0 15.0" Properties=species:S:1:pos:R:3:forces:R:3 energy=        2.2308227990 pbc="T T T"
       O     0.0139320100     0.0354194900     0.0000000000     12.435090517    -18.941769806     -0.000000000
       H     0.9541084100    -0.2796365300     0.0000000000     -2.199709119      2.344213464     -0.000000000
       H    -0.4539136100     0.6464520700     0.0000000000    -10.235381397     16.597556393     -0.000000000
       3
Lattice="15.0 0.0 0.0 0.0 15.0 0.0 0.0 0.0 15.0" Properties=species:S:1:pos:R:3:forces:R:3 energy=        3.2184788978 pbc="T T T"