3
Lattice="15.0 0.0 0.0 0.0 15.0 0.0 0.0 0.0 15.0" Properties=species:S:1:pos:R:3 energy=6.8840223339 pbc="T T T"
O        0.00000000       0.00000000       0.00000000
H        0.70000000       0.00000000       0.00000000
H       -0.17340000       0.67818000       0.00000000
3
Lattice="15.0 0.0 0.0 0.0 15.0 0.0 0.0 0.0 15.0" Properties=species:S:1:pos:R:3 energy=6.0819813985 pbc="T T T"
O        0.00000000       0.00000000       0.00000000
H        0.70000000       0.00000000       0.00000000
H       -0.17938000       0.70157000       0.00000000
3
Lattice="15.0 0.0 0.0 0.0 15.0 0.0 0.0 0.0 15.0" Properties=species:S:1:pos:R:3 energy=5.427931858 pbc="T T T"
O        0.00000000       0.00000000       0.00000000
H        0.70000000       0.00000000       0.00000000
H       -0.18536000       0.72496000       0.00000000
3
Lattice="15.0 0.0 0.0 0.0 15.0 0.0 0.0 0.0 15.0" Properties=species:S:1:pos:R:3 energy=4.9000316472 pbc="T T T"
O        0.00000000       0.00000000       0.00000000
H        0.70000000       0.00000000       0.00000000
H       -0.19134000       0.74834000       0.00000000
3
Lattice="15.0 0.0 0.0 0.0 15.0 0.0 0.0 0.0 15.0" Properties=species:S:1:pos:R:3 energy=4.4793634567 pbc="T T T"
O        0.00000000       0.00000000       0.00000000
H        0.70000000       0.00000000       0.00000000
H       -0.19732000       0.77172000       0.00000000
3
Lattice="15.0 0.0 0.0 0.0 15.0 0.0 0.0 0.0 15.0" Properties=species:S:1:pos:R:3 energy=4.1499944623 pbc="T T T"
O        0.00000000       0.00000000       0.00000000
H        0.70000000       0.00000000       0.00000000
H       -0.20330000       0.79511000       0.00000000
3
Lattice="15.0 0.0 0.0 0.0 15.0 0.0 0.0 0.0 15.0" Properties=species:S:1:pos:R:3 energy=3.8986297739 pbc="T T T"
O        0.00000000       0.00000000       0.00000000
H        0.70000000       0.00000000       0.00000000
H       -0.20928000       0.81850000       0.00000000
3
Lattice="15.0 0.0 0.0 0.0 15.0 0.0 0.0 0.0 15.0" Properties=species:S:1:pos:R:3 energy=3.7137705565 pbc="T T T"
O        0.00000000       0.00000000       0.00000000
H        0.70000000       0.00000000       0.00000000
H       -0.21526000       0.84189000       0.00000000
3
Lattice="15.0 0.0 0.0 0.0 15.0 0.0 0.0 0.0 15.0" Properties=species:S:1:pos:R:3 energy=3.585670233 pbc="T T T"
O        0.00000000       0.00000000       0.00000000
H        0.70000000       0.00000000       0.00000000
H       -0.22124000       0.86526000       0.00000000
3
Lattice="15.0 0.0 0.0 0.0 15.0 0.0 0.0 0.0 15.0" Properties=species:S:1:pos:R:3 energy=3.5057249633 pbc="T T T"
O        0.00000000       0.00000000       0.00000000
H        0.70000000       0.00000000       0.00000000
H       -0.22722000       0.88865000       0.00000000
3
Lattice="15.0 0.0 0.0 0.0 15.0 0.0 0.0 0.0 15.0" Properties=species:S:1:pos:R:3 energy=3.4668520644 pbc="T T T"
O        0.00000000       0.00000000       0.00000000
H        0.70000000       0.00000000       0.00000000
H       -0.23319000       0.91204000       0.00000000
3
Lattice="15.0 0.0 0.0 0.0 15.0 0.0 0.0 0.0 15.0" Properties=species:S:1:pos:R:3 energy=3.4628432884 pbc="T T T"
O        0.00000000       0.00000000       0.00000000
H        0.70000000       0.00000000       0.00000000
H       -0.23917000       0.93543000       0.00000000
3
Lattice="15.0 0.0 0.0 0.0 15.0 0.0 0.0 0.0 15.0" Properties=species:S:1:pos:R:3 energy=3.4883696583 pbc="T T T"
O        0.00000000       0.00000000       0.00000000
H        0.70000000       0.00000000       0.00000000
H       -0.24515000       0.95881000       0.00000000
3
Lattice="15.0 0.0 0.0 0.0 15.0 0.0 0.0 0.0 15.0" Properties=species:S:1:pos:R:3 energy=3.5388429589 pbc="T T T"
O        0.00000000       0.00000000       0.00000000
H        0.70000000       0.00000000       0.00000000
H       -0.25113000       0.98219000       0.00000000
3
Lattice="15.0 0.0 0.0 0.0 15.0 0.0 0.0 0.0 15.0" Properties=species:S:1:pos:R:3 energy=3.6103424811 pbc="T T T"
O        0.00000000       0.00000000       0.00000000
H        0.70000000       0.00000000       0.00000000
H       -0.25711000       1.00558000       0.00000000
3
Lattice="15.0 0.0 0.0 0.0 15.0 0.0 0.0 0.0 15.0" Properties=species:S:1:pos:R:3 energy=3.6994300499 pbc="T T T"
O        0.00000000       0.00000000       0.00000000
H        0.70000000       0.00000000       0.00000000
H       -0.26309000       1.02897000       0.00000000
3
Lattice="15.0 0.0 0.0 0.0 15.0 0.0 0.0 0.0 15.0" Properties=species:S:1:pos:R:3 energy=3.8031433007 pbc="T T T"
O        0.00000000       0.00000000       0.00000000
H        0.70000000       0.00000000       0.00000000
H       -0.26907000       1.05236000       0.00000000
3
Lattice="15.0 0.0 0.0 0.0 15.0 0.0 0.0 0.0 15.0" Properties=species:S:1:pos:R:3 energy=3.918816742 pbc="T T T"
O        0.00000000       0.00000000       0.00000000
H        0.70000000       0.00000000       0.00000000
H       -0.27505000       1.07573000       0.00000000
3
Lattice="15.0 0.0 0.0 0.0 15.0 0.0 0.0 0.0 15.0" Properties=species:S:1:pos:R:3 energy=4.0444095879 pbc="T T T"
O        0.00000000       0.00000000       0.00000000
H        0.70000000       0.00000000       0.00000000
H       -0.28103000       1.09912000       0.00000000
3
Lattice="15.0 0.0 0.0 0.0 15.0 0.0 0.0 0.0 15.0" Properties=species:S:1:pos:R:3 energy=4.1778966338 pbc="T T T"
O        0.00000000       0.00000000       0.00000000
H        0.70000000       0.00000000       0.00000000
H       -0.28701000       1.12251000       0.00000000
3
Lattice="15.0 0.0 0.0 0.0 15.0 0.0 0.0 0.0 15.0" Properties=species:S:1:pos:R:3 energy=4.3175948881 pbc="T T T"
O        0.00000000       0.00000000       0.00000000
H        0.70000000       0.00000000       0.00000000
H       -0.29299000       1.14590000       0.00000000
3
Lattice="15.0 0.0 0.0 0.0 15.0 0.0 0.0 0.0 15.0" Properties=species:S:1:pos:R:3 energy=4.4619824043 pbc="T T T"
O        0.00000000       0.00000000       0.00000000
H        0.70000000       0.00000000       0.00000000
H       -0.29897000       1.16928000       0.00000000
3
Lattice="15.0 0.0 0.0 0.0 15.0 0.0 0.0 0.0 15.0" Properties=species:S:1:pos:R:3 energy=4.6098428689 pbc="T T T"
O        0.00000000       0.00000000       0.00000000
H        0.70000000       0.00000000       0.00000000
H       -0.30495000       1.19266000       0.00000000
3
Lattice="15.0 0.0 0.0 0.0 15.0 0.0 0.0 0.0 15.0" Properties=species:S:1:pos:R:3 energy=4.7601312994 pbc="T T T"
O        0.00000000       0.00000000       0.00000000
H        0.70000000       0.00000000       0.00000000
H       -0.31093000       1.21605000       0.00000000
3
Lattice="15.0 0.0 0.0 0.0 15.0 0.0 0.0 0.0 15.0" Properties=species:S:1:pos:R:3 energy=4.9118276415 pbc="T T T"
O        0.00000000       0.00000000       0.00000000
H        0.70000000       0.00000000       0.00000000
H       -0.31691000       1.23944000       0.00000000
3
Lattice="15.0 0.0 0.0 0.0 15.0 0.0 0.0 0.0 15.0" Properties=species:S:1:pos:R:3 energy=5.0640363985 pbc="T T T"
O        0.00000000       0.00000000       0.00000000
H        0.70000000       0.00000000       0.00000000
H       -0.32289000       1.26282000       0.00000000
3
Lattice="15.0 0.0 0.0 0.0 15.0 0.0 0.0 0.0 15.0" Properties=species:S:1:pos:R:3 energy=5.216154762 pbc="T T T"
O        0.00000000       0.00000000       0.00000000
H        0.70000000       0.00000000       0.00000000
H       -0.32887000       1.28621000       0.00000000
3
Lattice="15.0 0.0 0.0 0.0 15.0 0.0 0.0 0.0 15.0" Properties=species:S:1:pos:R:3 energy=5.3674168648 pbc="T T T"
O        0.00000000       0.00000000       0.00000000
H        0.70000000       0.00000000       0.00000000
H       -0.33484000       1.30959000       0.00000000
3
Lattice="15.0 0.0 0.0 0.0 15.0 0.0 0.0 0.0 15.0" Properties=species:S:1:pos:R:3 energy=5.5174361556 pbc="T T T"
O        0.00000000       0.00000000       0.00000000
H        0.70000000       0.00000000       0.00000000
H       -0.34082000       1.33298000       0.00000000
3
Lattice="15.0 0.0 0.0 0.0 15.0 0.0 0.0 0.0 15.0" Properties=species:S:1:pos:R:3 energy=5.6656651549 pbc="T T T"
O        0.00000000       0.00000000       0.00000000
H        0.70000000       0.00000000       0.00000000
H       -0.34680000       1.35637000       0.00000000
3
Lattice="15.0 0.0 0.0 0.0 15.0 0.0 0.0 0.0 15.0" Properties=species:S:1:pos:R:3 energy=6.082071509 pbc="T T T"
O        0.00000000       0.00000000       0.00000000
H        0.72414000       0.00000000       0.00000000
H       -0.17340000       0.67818000       0.00000000
3
Lattice="15.0 0.0 0.0 0.0 15.0 0.0 0.0 0.0 15.0" Properties=species:S:1:pos:R:3 energy=5.2794620651 pbc="T T T"
O        0.00000000       0.00000000       0.00000000
H        0.72414000       0.00000000       0.00000000
H       -0.17938000       0.70157000       0.00000000
3
Lattice="15.0 0.0 0.0 0.0 15.0 0.0 0.0 0.0 15.0" Properties=species:S:1:pos:R:3 energy=4.6248915246 pbc="T T T"
O        0.00000000       0.00000000       0.00000000
H        0.72414000       0.00000000       0.00000000
H       -0.18536000       0.72496000       0.00000000
3
Lattice="15.0 0.0 0.0 0.0 15.0 0.0 0.0 0.0 15.0" Properties=species:S:1:pos:R:3 energy=4.0965109947 pbc="T T T"
O        0.00000000       0.00000000       0.00000000
H        0.72414000       0.00000000       0.00000000
H       -0.19134000       0.74834000       0.00000000
3
Lattice="15.0 0.0 0.0 0.0 15.0 0.0 0.0 0.0 15.0" Properties=species:S:1:pos:R:3 energy=3.6753969593 pbc="T T T"
O        0.00000000       0.00000000       0.00000000
H        0.72414000       0.00000000       0.00000000
H       -0.19732000       0.77172000       0.00000000
3
Lattice="15.0 0.0 0.0 0.0 15.0 0.0 0.0 0.0 15.0" Properties=species:S:1:pos:R:3 energy=3.3456114347 pbc="T T T"
O        0.00000000       0.00000000       0.00000000
H        0.72414000       0.00000000       0.00000000
H       -0.20330000       0.79511000       0.00000000
3
Lattice="15.0 0.0 0.0 0.0 15.0 0.0 0.0 0.0 15.0" Properties=species:S:1:pos:R:3 energy=3.0938554629 pbc="T T T"
O        0.00000000       0.00000000       0.00000000
H        0.72414000       0.00000000       0.00000000
H       -0.20928000       0.81850000       0.00000000
3
Lattice="15.0 0.0 0.0 0.0 15.0 0.0 0.0 0.0 15.0" Properties=species:S:1:pos:R:3 energy=2.9086258441 pbc="T T T"
O        0.00000000       0.00000000       0.00000000
H        0.72414000       0.00000000       0.00000000
H       -0.21526000       0.84189000       0.00000000
3
Lattice="15.0 0.0 0.0 0.0 15.0 0.0 0.0 0.0 15.0" Properties=species:S:1:pos:R:3 energy=2.7801718978 pbc="T T T"
O        0.00000000       0.00000000       0.00000000
H        0.72414000       0.00000000       0.00000000
H       -0.22124000       0.86526000       0.00000000
3
Lattice="15.0 0.0 0.0 0.0 15.0 0.0 0.0 0.0 15.0" Properties=species:S:1:pos:R:3 energy=2.6998838408 pbc="T T T"
O        0.00000000       0.00000000       0.00000000
H        0.72414000       0.00000000       0.00000000
H       -0.22722000       0.88865000       0.00000000
3
Lattice="15.0 0.0 0.0 0.0 15.0 0.0 0.0 0.0 15.0" Properties=species:S:1:pos:R:3 energy=2.6606740622 pbc="T T T"
O        0.00000000       0.00000000       0.00000000
H        0.72414000       0.00000000       0.00000000
H       -0.23319000       0.91204000       0.00000000
3
Lattice="15.0 0.0 0.0 0.0 15.0 0.0 0.0 0.0 15.0" Properties=species:S:1:pos:R:3 energy=2.656330012 pbc="T T T"
O        0.00000000       0.00000000       0.00000000
H        0.72414000       0.00000000       0.00000000
H       -0.23917000       0.93543000       0.00000000
3
Lattice="15.0 0.0 0.0 0.0 15.0 0.0 0.0 0.0 15.0" Properties=species:S:1:pos:R:3 energy=2.6815179703 pbc="T T T"
O        0.00000000       0.00000000       0.00000000
H        0.72414000       0.00000000       0.00000000
H       -0.24515000       0.95881000       0.00000000
3
Lattice="15.0 0.0 0.0 0.0 15.0 0.0 0.0 0.0 15.0" Properties=species:S:1:pos:R:3 energy=2.7316456264 pbc="T T T"
O        0.00000000       0.00000000       0.00000000
H        0.72414000       0.00000000       0.00000000
H       -0.25113000       0.98219000       0.00000000
3
Lattice="15.0 0.0 0.0 0.0 15.0 0.0 0.0 0.0 15.0" Properties=species:S:1:pos:R:3 energy=2.8027890794 pbc="T T T"
O        0.00000000       0.00000000       0.00000000
H        0.72414000       0.00000000       0.00000000
H       -0.25711000       1.00558000       0.00000000
3
Lattice="15.0 0.0 0.0 0.0 15.0 0.0 0.0 0.0 15.0" Properties=species:S:1:pos:R:3 energy=2.8915083639 pbc="T T T"
O        0.00000000       0.00000000       0.00000000
H        0.72414000       0.00000000       0.00000000
H       -0.26309000       1.02897000       0.00000000
3
Lattice="15.0 0.0 0.0 0.0 15.0 0.0 0.0 0.0 15.0" Properties=species:S:1:pos:R:3 energy=2.9948400212 pbc="T T T"
O        0.00000000       0.00000000       0.00000000
H        0.72414000       0.00000000       0.00000000
H       -0.26907000       1.05236000       0.00000000
3
Lattice="15.0 0.0 0.0 0.0 15.0 0.0 0.0 0.0 15.0" Properties=species:S:1:pos:R:3 energy=3.1101186988 pbc="T T T"
O        0.00000000       0.00000000       0.00000000
H        0.72414000       0.00000000       0.00000000
H       -0.27505000       1.07573000       0.00000000
3
Lattice="15.0 0.0 0.0 0.0 15.0 0.0 0.0 0.0 15.0" Properties=species:S:1:pos:R:3 energy=3.2353030855 pbc="T T T"
O        0.00000000       0.00000000       0.00000000
H        0.72414000       0.00000000       0.00000000
H       -0.28103000       1.09912000       0.00000000
3
Lattice="15.0 0.0 0.0 0.0 15.0 0.0 0.0 0.0 15.0" Properties=species:S:1:pos:R:3 energy=3.3683693726 pbc="T T T"
O        0.00000000       0.00000000       0.00000000
H        0.72414000       0.00000000       0.00000000
H       -0.28701000       1.12251000       0.00000000
3
Lattice="15.0 0.0 0.0 0.0 15.0 0.0 0.0 0.0 15.0" Properties=species:S:1:pos:R:3 energy=3.5076357387 pbc="T T T"
O        0.00000000       0.00000000       0.00000000
H        0.72414000       0.00000000       0.00000000
H       -0.29299000       1.14590000       0.00000000
3
Lattice="15.0 0.0 0.0 0.0 15.0 0.0 0.0 0.0 15.0" Properties=species:S:1:pos:R:3 energy=3.6515819923 pbc="T T T"
O        0.00000000       0.00000000       0.00000000
H        0.72414000       0.00000000       0.00000000
H       -0.29897000       1.16928000       0.00000000
3
Lattice="15.0 0.0 0.0 0.0 15.0 0.0 0.0 0.0 15.0" Properties=species:S:1:pos:R:3 energy=3.798993284 pbc="T T T"
O        0.00000000       0.00000000       0.00000000
H        0.72414000       0.00000000       0.00000000
H       -0.30495000       1.19266000       0.00000000
3
Lattice="15.0 0.0 0.0 0.0 15.0 0.0 0.0 0.0 15.0" Properties=species:S:1:pos:R:3 energy=3.9488261877 pbc="T T T"
O        0.00000000       0.00000000       0.00000000
H        0.72414000       0.00000000       0.00000000
H       -0.31093000       1.21605000       0.00000000
3
Lattice="15.0 0.0 0.0 0.0 15.0 0.0 0.0 0.0 15.0" Properties=species:S:1:pos:R:3 energy=4.1000626982 pbc="T T T"
O        0.00000000       0.00000000       0.00000000
H        0.72414000       0.00000000       0.00000000
H       -0.31691000       1.23944000       0.00000000
3
Lattice="15.0 0.0 0.0 0.0 15.0 0.0 0.0 0.0 15.0" Properties=species:S:1:pos:R:3 energy=4.2518093705 pbc="T T T"
O        0.00000000       0.00000000       0.00000000
H        0.72414000       0.00000000       0.00000000
H       -0.32289000       1.26282000       0.00000000
3
Lattice="15.0 0.0 0.0 0.0 15.0 0.0 0.0 0.0 15.0" Properties=species:S:1:pos:R:3 energy=4.4034647731 pbc="T T T"
O        0.00000000       0.00000000       0.00000000
H        0.72414000       0.00000000       0.00000000
H       -0.32887000       1.28621000       0.00000000
3
Lattice="15.0 0.0 0.0 0.0 15.0 0.0 0.0 0.0 15.0" Properties=species:S:1:pos:R:3 energy=4.5542651885 pbc="T T T"
O        0.00000000       0.00000000       0.00000000
H        0.72414000       0.00000000       0.00000000
H       -0.33484000       1.30959000       0.00000000
3
Lattice="15.0 0.0 0.0 0.0 15.0 0.0 0.0 0.0 15.0" Properties=species:S:1:pos:R:3 energy=4.7038254668 pbc="T T T"
O        0.00000000       0.00000000       0.00000000
H        0.72414000       0.00000000       0.00000000
H       -0.34082000       1.33298000       0.00000000
3
Lattice="15.0 0.0 0.0 0.0 15.0 0.0 0.0 0.0 15.0" Properties=species:S:1:pos:R:3 energy=4.8515999244 pbc="T T T"
O        0.00000000       0.00000000       0.00000000
H        0.72414000       0.00000000       0.00000000
H       -0.34680000       1.35637000       0.00000000
3
Lattice="15.0 0.0 0.0 0.0 15.0 0.0 0.0 0.0 15.0" Properties=species:S:1:pos:R:3 energy=5.428082707 pbc="T T T"
O        0.00000000       0.00000000       0.00000000
H        0.74828000       0.00000000       0.00000000
H       -0.17340000       0.67818000       0.00000000
3
Lattice="15.0 0.0 0.0 0.0 15.0 0.0 0.0 0.0 15.0" Properties=species:S:1:pos:R:3 energy=4.6249522495 pbc="T T T"
O        0.00000000       0.00000000       0.00000000
H        0.74828000       0.00000000       0.00000000
H       -0.17938000       0.70157000       0.00000000
3
Lattice="15.0 0.0 0.0 0.0 15.0 0.0 0.0 0.0 15.0" Properties=species:S:1:pos:R:3 energy=3.9699057409 pbc="T T T"
O        0.00000000       0.00000000       0.00000000
H        0.74828000       0.00000000       0.00000000
H       -0.18536000       0.72496000       0.00000000
3
Lattice="15.0 0.0 0.0 0.0 15.0 0.0 0.0 0.0 15.0" Properties=species:S:1:pos:R:3 energy=3.441087505 pbc="T T T"
O        0.00000000       0.00000000       0.00000000
H        0.74828000       0.00000000       0.00000000
H       -0.19134000       0.74834000       0.00000000
3
Lattice="15.0 0.0 0.0 0.0 15.0 0.0 0.0 0.0 15.0" Properties=species:S:1:pos:R:3 energy=3.0195677805 pbc="T T T"
O        0.00000000       0.00000000       0.00000000
H        0.74828000       0.00000000       0.00000000
H       -0.19732000       0.77172000       0.00000000
3
Lattice="15.0 0.0 0.0 0.0 15.0 0.0 0.0 0.0 15.0" Properties=species:S:1:pos:R:3 energy=2.6894033102 pbc="T T T"
O        0.00000000       0.00000000       0.00000000
H        0.74828000       0.00000000       0.00000000
H       -0.20330000       0.79511000       0.00000000
3
Lattice="15.0 0.0 0.0 0.0 15.0 0.0 0.0 0.0 15.0" Properties=species:S:1:pos:R:3 energy=2.4372909318 pbc="T T T"
O        0.00000000       0.00000000       0.00000000
H        0.74828000       0.00000000       0.00000000
H       -0.20928000       0.81850000       0.00000000
3
Lattice="15.0 0.0 0.0 0.0 15.0 0.0 0.0 0.0 15.0" Properties=species:S:1:pos:R:3 energy=2.2517230102 pbc="T T T"
O        0.00000000       0.00000000       0.00000000
H        0.74828000       0.00000000       0.00000000
H       -0.21526000       0.84189000       0.00000000
3
Lattice="15.0 0.0 0.0 0.0 15.0 0.0 0.0 0.0 15.0" Properties=species:S:1:pos:R:3 energy=2.1229447858 pbc="T T T"
O        0.00000000       0.00000000       0.00000000
H        0.74828000       0.00000000       0.00000000
H       -0.22124000       0.86526000       0.00000000
3
Lattice="15.0 0.0 0.0 0.0 15.0 0.0 0.0 0.0 15.0" Properties=species:S:1:pos:R:3 energy=2.0423406931 pbc="T T T"
O        0.00000000       0.00000000       0.00000000
H        0.74828000       0.00000000       0.00000000
H       -0.22722000       0.88865000       0.00000000
3
Lattice="15.0 0.0 0.0 0.0 15.0 0.0 0.0 0.0 15.0" Properties=species:S:1:pos:R:3 energy=2.0028184325 pbc="T T T"
O        0.00000000       0.00000000       0.00000000
H        0.74828000       0.00000000       0.00000000
H       -0.23319000       0.91204000       0.00000000
3
Lattice="15.0 0.0 0.0 0.0 15.0 0.0 0.0 0.0 15.0" Properties=species:S:1:pos:R:3 energy=1.9981615004 pbc="T T T"
O        0.00000000       0.00000000       0.00000000
H        0.74828000       0.00000000       0.00000000
H       -0.23917000       0.93543000       0.00000000
3
Lattice="15.0 0.0 0.0 0.0 15.0 0.0 0.0 0.0 15.0" Properties=species:S:1:pos:R:3 energy=2.0230317575 pbc="T T T"
O        0.00000000       0.00000000       0.00000000
H        0.74828000       0.00000000       0.00000000
H       -0.24515000       0.95881000       0.00000000
3
Lattice="15.0 0.0 0.0 0.0 15.0 0.0 0.0 0.0 15.0" Properties=species:S:1:pos:R:3 energy=2.0728331409 pbc="T T T"
O        0.00000000       0.00000000       0.00000000
H        0.74828000       0.00000000       0.00000000
H       -0.25113000       0.98219000       0.00000000
3
Lattice="15.0 0.0 0.0 0.0 15.0 0.0 0.0 0.0 15.0" Properties=species:S:1:pos:R:3 energy=2.1436388761 pbc="T T T"
O        0.00000000       0.00000000       0.00000000
H        0.74828000       0.00000000       0.00000000
H       -0.25711000       1.00558000       0.00000000
3
Lattice="15.0 0.0 0.0 0.0 15.0 0.0 0.0 0.0 15.0" Properties=species:S:1:pos:R:3 energy=2.2320074331 pbc="T T T"
O        0.00000000       0.00000000       0.00000000
H        0.74828000       0.00000000       0.00000000
H       -0.26309000       1.02897000       0.00000000
3
Lattice="15.0 0.0 0.0 0.0 15.0 0.0 0.0 0.0 15.0" Properties=species:S:1:pos:R:3 energy=2.3349744415 pbc="T T T"
O        0.00000000       0.00000000       0.00000000
H        0.74828000       0.00000000       0.00000000
H       -0.26907000       1.05236000       0.00000000
3
Lattice="15.0 0.0 0.0 0.0 15.0 0.0 0.0 0.0 15.0" Properties=species:S:1:pos:R:3 energy=2.4498748047 pbc="T T T"
O        0.00000000       0.00000000       0.00000000
H        0.74828000       0.00000000       0.00000000
H       -0.27505000       1.07573000       0.00000000
3
Lattice="15.0 0.0 0.0 0.0 15.0 0.0 0.0 0.0 15.0" Properties=species:S:1:pos:R:3 energy=2.574666776 pbc="T T T"
O        0.00000000       0.00000000       0.00000000
H        0.74828000       0.00000000       0.00000000
H       -0.28103000       1.09912000       0.00000000
3
Lattice="15.0 0.0 0.0 0.0 15.0 0.0 0.0 0.0 15.0" Properties=species:S:1:pos:R:3 energy=2.7073278855 pbc="T T T"
O        0.00000000       0.00000000       0.00000000
H        0.74828000       0.00000000       0.00000000
H       -0.28701000       1.12251000       0.00000000
3
Lattice="15.0 0.0 0.0 0.0 15.0 0.0 0.0 0.0 15.0" Properties=species:S:1:pos:R:3 energy=2.8461775282 pbc="T T T"
O        0.00000000       0.00000000       0.00000000
H        0.74828000       0.00000000       0.00000000
H       -0.29299000       1.14590000       0.00000000
3
Lattice="15.0 0.0 0.0 0.0 15.0 0.0 0.0 0.0 15.0" Properties=species:S:1:pos:R:3 energy=2.9896971972 pbc="T T T"
O        0.00000000       0.00000000       0.00000000
H        0.74828000       0.00000000       0.00000000
H       -0.29897000       1.16928000       0.00000000
3
Lattice="15.0 0.0 0.0 0.0 15.0 0.0 0.0 0.0 15.0" Properties=species:S:1:pos:R:3 energy=3.1366734414 pbc="T T T"
O        0.00000000       0.00000000       0.00000000
H        0.74828000       0.00000000       0.00000000
H       -0.30495000       1.19266000       0.00000000
3
Lattice="15.0 0.0 0.0 0.0 15.0 0.0 0.0 0.0 15.0" Properties=species:S:1:pos:R:3 energy=3.2860643261 pbc="T T T"
O        0.00000000       0.00000000       0.00000000
H        0.74828000       0.00000000       0.00000000
H       -0.31093000       1.21605000       0.00000000
3
Lattice="15.0 0.0 0.0 0.0 15.0 0.0 0.0 0.0 15.0" Properties=species:S:1:pos:R:3 energy=3.4368538134 pbc="T T T"
O        0.00000000       0.00000000       0.00000000
H        0.74828000       0.00000000       0.00000000
H       -0.31691000       1.23944000       0.00000000
3
Lattice="15.0 0.0 0.0 0.0 15.0 0.0 0.0 0.0 15.0" Properties=species:S:1:pos:R:3 energy=3.5881504257 pbc="T T T"
O        0.00000000       0.00000000       0.00000000
H        0.74828000       0.00000000       0.00000000
H       -0.32289000       1.26282000       0.00000000
3
Lattice="15.0 0.0 0.0 0.0 15.0 0.0 0.0 0.0 15.0" Properties=species:S:1:pos:R:3 energy=3.739354054 pbc="T T T"
O        0.00000000       0.00000000       0.00000000
H        0.74828000       0.00000000       0.00000000
H       -0.32887000       1.28621000       0.00000000
3
Lattice="15.0 0.0 0.0 0.0 15.0 0.0 0.0 0.0 15.0" Properties=species:S:1:pos:R:3 energy=3.8897030434 pbc="T T T"
O        0.00000000       0.00000000       0.00000000
H        0.74828000       0.00000000       0.00000000
H       -0.33484000       1.30959000       0.00000000
3
Lattice="15.0 0.0 0.0 0.0 15.0 0.0 0.0 0.0 15.0" Properties=species:S:1:pos:R:3 energy=4.0388135038 pbc="T T T"
O        0.00000000       0.00000000       0.00000000
H        0.74828000       0.00000000       0.00000000
H       -0.34082000       1.33298000       0.00000000
3
Lattice="15.0 0.0 0.0 0.0 15.0 0.0 0.0 0.0 15.0" Properties=species:S:1:pos:R:3 energy=4.1861418525 pbc="T T T"
O        0.00000000       0.00000000       0.00000000
H        0.74828000       0.00000000       0.00000000
H       -0.34680000       1.35637000       0.00000000
3
Lattice="15.0 0.0 0.0 0.0 15.0 0.0 0.0 0.0 15.0" Properties=species:S:1:pos:R:3 energy=4.9002291583 pbc="T T T"
O        0.00000000       0.00000000       0.00000000
H        0.77241000       0.00000000       0.00000000
H       -0.17340000       0.67818000       0.00000000
3
Lattice="15.0 0.0 0.0 0.0 15.0 0.0 0.0 0.0 15.0" Properties=species:S:1:pos:R:3 energy=4.0966182021 pbc="T T T"
O        0.00000000       0.00000000       0.00000000
H        0.77241000       0.00000000       0.00000000
H       -0.17938000       0.70157000       0.00000000
3
Lattice="15.0 0.0 0.0 0.0 15.0 0.0 0.0 0.0 15.0" Properties=species:S:1:pos:R:3 energy=3.4411338134 pbc="T T T"
O        0.00000000       0.00000000       0.00000000
H        0.77241000       0.00000000       0.00000000
H       -0.18536000       0.72496000       0.00000000
3
Lattice="15.0 0.0 0.0 0.0 15.0 0.0 0.0 0.0 15.0" Properties=species:S:1:pos:R:3 energy=2.9119134394 pbc="T T T"
O        0.00000000       0.00000000       0.00000000
H        0.77241000       0.00000000       0.00000000
H       -0.19134000       0.74834000       0.00000000
3
Lattice="15.0 0.0 0.0 0.0 15.0 0.0 0.0 0.0 15.0" Properties=species:S:1:pos:R:3 energy=2.4900209352 pbc="T T T"
O        0.00000000       0.00000000       0.00000000
H        0.77241000       0.00000000       0.00000000
H       -0.19732000       0.77172000       0.00000000
3
Lattice="15.0 0.0 0.0 0.0 15.0 0.0 0.0 0.0 15.0" Properties=species:S:1:pos:R:3 energy=2.1595075905 pbc="T T T"
O        0.00000000       0.00000000       0.00000000
H        0.77241000       0.00000000       0.00000000
H       -0.20330000       0.79511000       0.00000000
3
Lattice="15.0 0.0 0.0 0.0 15.0 0.0 0.0 0.0 15.0" Properties=species:S:1:pos:R:3 energy=1.9070659162 pbc="T T T"
O        0.00000000       0.00000000       0.00000000
H        0.77241000       0.00000000       0.00000000
H       -0.20928000       0.81850000       0.00000000
3
Lattice="15.0 0.0 0.0 0.0 15.0 0.0 0.0 0.0 15.0" Properties=species:S:1:pos:R:3 energy=1.7211838255 pbc="T T T"
O        0.00000000       0.00000000       0.00000000
H        0.77241000       0.00000000       0.00000000
H       -0.21526000       0.84189000       0.00000000
3
Lattice="15.0 0.0 0.0 0.0 15.0 0.0 0.0 0.0 15.0" Properties=species:S:1:pos:R:3 energy=1.5921025942 pbc="T T T"
O        0.00000000       0.00000000       0.00000000
H        0.77241000       0.00000000       0.00000000
H       -0.22124000       0.86526000       0.00000000
3
Lattice="15.0 0.0 0.0 0.0 15.0 0.0 0.0 0.0 15.0" Properties=species:S:1:pos:R:3 energy=1.5112011817 pbc="T T T"
O        0.00000000       0.00000000       0.00000000
H        0.77241000       0.00000000       0.00000000
H       -0.22722000       0.88865000       0.00000000
3
Lattice="15.0 0.0 0.0 0.0 15.0 0.0 0.0 0.0 15.0" Properties=species:S:1:pos:R:3 energy=1.4713829429 pbc="T T T"
O        0.00000000       0.00000000       0.00000000
H        0.77241000       0.00000000       0.00000000
H       -0.23319000       0.91204000       0.00000000
3
Lattice="15.0 0.0 0.0 0.0 15.0 0.0 0.0 0.0 15.0" Properties=species:S:1:pos:R:3 energy=1.4664279046 pbc="T T T"
O        0.00000000       0.00000000       0.00000000
H        0.77241000       0.00000000       0.00000000
H       -0.23917000       0.93543000       0.00000000
3
Lattice="15.0 0.0 0.0 0.0 15.0 0.0 0.0 0.0 15.0" Properties=species:S:1:pos:R:3 energy=1.4909939575 pbc="T T T"
O        0.00000000       0.00000000       0.00000000
H        0.77241000       0.00000000       0.00000000
H       -0.24515000       0.95881000       0.00000000
3
Lattice="15.0 0.0 0.0 0.0 15.0 0.0 0.0 0.0 15.0" Properties=species:S:1:pos:R:3 energy=1.540481716 pbc="T T T"
O        0.00000000       0.00000000       0.00000000
H        0.77241000       0.00000000       0.00000000
H       -0.25113000       0.98219000       0.00000000
3
Lattice="15.0 0.0 0.0 0.0 15.0 0.0 0.0 0.0 15.0" Properties=species:S:1:pos:R:3 energy=1.6109618888 pbc="T T T"
O        0.00000000       0.00000000       0.00000000
H        0.77241000       0.00000000       0.00000000
H       -0.25711000       1.00558000       0.00000000
3
Lattice="15.0 0.0 0.0 0.0 15.0 0.0 0.0 0.0 15.0" Properties=species:S:1:pos:R:3 energy=1.6989916613 pbc="T T T"
O        0.00000000       0.00000000       0.00000000
H        0.77241000       0.00000000       0.00000000
H       -0.26309000       1.02897000       0.00000000
3
Lattice="15.0 0.0 0.0 0.0 15.0 0.0 0.0 0.0 15.0" Properties=species:S:1:pos:R:3 energy=1.8016059285 pbc="T T T"
O        0.00000000       0.00000000       0.00000000
H        0.77241000       0.00000000       0.00000000
H       -0.26907000       1.05236000       0.00000000
3
Lattice="15.0 0.0 0.0 0.0 15.0 0.0 0.0 0.0 15.0" Properties=species:S:1:pos:R:3 energy=1.9161399203 pbc="T T T"
O        0.00000000       0.00000000       0.00000000
H        0.77241000       0.00000000       0.00000000
H       -0.27505000       1.07573000       0.00000000
3
Lattice="15.0 0.0 0.0 0.0 15.0 0.0 0.0 0.0 15.0" Properties=species:S:1:pos:R:3 energy=2.0405515907 pbc="T T T"
O        0.00000000       0.00000000       0.00000000