3
Lattice="15.0 0.0 0.0 0.0 15.0 0.0 0.0 0.0 15.0" Properties=species:S:1:pos:R:3 energy=0 pbc="T T T"
O        0.00000000       0.00000000       0.00000000
H        0.95883163       0.00000000       0.00000000
H       -0.23751797       0.92894742       0.00000000
       3
Lattice="15.0 0.0 0.0 0.0 15.0 0.0 0.0 0.0 15.0" Properties=species:S:1:pos:R:3:forces:R:3 energy=        3.4607794544 pbc="T T T"
       O     0.0000000000     0.0000000000     0.0000000000    -36.456071308      0.822183283     -0.000000000
       H     0.7000000000     0.0000000000     0.0000000000     36.836271310     -0.585024050     -0.000000000
       H    -0.2375200000     0.9289500000     0.0000000000     -0.380200003     -0.237159182     -0.000000000
       3
Lattice="15.0 0.0 0.0 0.0 15.0 0.0 0.0 0.0 15.0" Properties=species:S:1:pos:R:3:forces:R:3 energy=        1.9544457339 pbc="T T T"
       O     0.0000000000     0.0000000000     0.0000000000    -23.832031410      0.637962112     -0.000000000
       H     0.7500000000     0.0000000000     0.0000000000     24.144998422     -0.447848638     -0.000000000
       H    -0.2375200000     0.9289500000     0.0000000000     -0.312967012     -0.190113474     -0.000000000
       3
Lattice="15.0 0.0 0.0 0.0 15.0 0.0 0.0 0.0 15.0" Properties=species:S:1:pos:R:3:forces:R:3 energy=        0.9874321844 pbc="T T T"
       O     0.0000000000     0.0000000000     0.0000000000    -14.810690275      0.466897436     -0.000000000
       H     0.8000000000     0.0000000000     0.0000000000     15.051144275     -0.322179124     -0.000000000
       H    -0.2375200000     0.9289500000     0.0000000000     -0.240454052     -0.144718364     -0.000000000
       3
Lattice="15.0 0.0 0.0 0.0 15.0 0.0 0.0 0.0 15.0" Properties=species:S:1:pos:R:3:forces:R:3 energy=        0.4073817033 pbc="T T T"
       O     0.0000000000     0.0000000000     0.0000000000     -8.355143104      0.307481766     -0.000000000
       H     0.8500000000     0.0000000000     0.0000000000      8.520178437     -0.208127351     -0.000000000
       H    -0.2375200000     0.9289500000     0.0000000000     -0.165035333     -0.099354466     -0.000000000
       3
Lattice="15.0 0.0 0.0 0.0 15.0 0.0 0.0 0.0 15.0" Properties=species:S:1:pos:R:3:forces:R:3 energy=        0.1052105355 pbc="T T T"
       O     0.0000000000     0.0000000000     0.0000000000     -3.744934158      0.158677352     -0.000000000
       H     0.9000000000     0.0000000000     0.0000000000      3.833505310     -0.105463822     -0.000000000
       H    -0.2375200000     0.9289500000     0.0000000000     -0.088571152     -0.053213530     -0.000000000
       3
Lattice="15.0 0.0 0.0 0.0 15.0 0.0 0.0 0.0 15.0" Properties=species:S:1:pos:R:3:forces:R:3 energy=        0.0021132771 pbc="T T T"
       O     0.0000000000     0.0000000000     0.0000000000     -0.471991360      0.019799921     -0.000000000
       H     0.9500000000     0.0000000000     0.0000000000      0.484517729     -0.013759162     -0.000000000
       H    -0.2375200000     0.9289500000     0.0000000000     -0.012526369     -0.006040758     -0.000000000
       3
Lattice="15.0 0.0 0.0 0.0 15.0 0.0 0.0 0.0 15.0" Properties=species:S:1:pos:R:3:forces:R:3 energy=        0.0407496247 pbc="T T T"
       O     0.0000000000     0.0000000000     0.0000000000      1.826025478     -0.109560517     -0.000000000
       H     1.0000000000     0.0000000000     0.0000000000     -1.887889900      0.067467013     -0.000000000
       H    -0.2375200000     0.9289500000     0.0000000000      0.061864422      0.042093504     -0.000000000
       3
Lattice="15.0 0.0 0.0 0.0 15.0 0.0 0.0 0.0 15.0" Properties=species:S:1:pos:R:3:forces:R:3 energy=        0.1791378820 pbc="T T T"
       O     0.0000000000     0.0000000000     0.0000000000      3.409598642     -0.229602500     -0.000000000
       H     1.0500000000     0.0000000000     0.0000000000     -3.543068578      0.138655802     -0.000000000
       H    -0.2375200000     0.9289500000     0.0000000000      0.133469936      0.090946698     -0.000000000
       3
Lattice="15.0 0.0 0.0 0.0 15.0 0.0 0.0 0.0 15.0" Properties=species:S:1:pos:R:3:forces:R:3 energy=        0.3863611009 pbc="T T T"
       O     0.0000000000     0.0000000000     0.0000000000      4.467283670     -0.340392159     -0.000000000
       H     1.1000000000     0.0000000000     0.0000000000     -4.668506526      0.200203310     -0.000000000
       H    -0.2375200000     0.9289500000     0.0000000000      0.201222856      0.140188900     -0.000000000
       3
Lattice="15.0 0.0 0.0 0.0 15.0 0.0 0.0 0.0 15.0" Properties=species:S:1:pos:R:3:forces:R:3 energy=        0.6395288238 pbc="T T T"
       O     0.0000000000     0.0000000000     0.0000000000      5.136631150     -0.441947182     -0.000000000
       H     1.1500000000     0.0000000000     0.0000000000     -5.400769753      0.252495717     -0.000000000
       H    -0.2375200000     0.9289500000     0.0000000000      0.264138603      0.189451466     -0.000000000
       3
Lattice="15.0 0.0 0.0 0.0 15.0 0.0 0.0 0.0 15.0" Properties=species:S:1:pos:R:3:forces:R:3 energy=        0.9216220297 pbc="T T T"
       O     0.0000000000     0.0000000000     0.0000000000      5.518884437     -0.534295492     -0.000000000
       H     1.2000000000     0.0000000000     0.0000000000     -5.840248830      0.295952266     -0.000000000
       H    -0.2375200000     0.9289500000     0.0000000000      0.321364341      0.238343227     -0.000000000
       3
Lattice="15.0 0.0 0.0 0.0 15.0 0.0 0.0 0.0 15.0" Properties=species:S:1:pos:R:3:forces:R:3 energy=        1.2199582888 pbc="T T T"
       O     0.0000000000     0.0000000000     0.0000000000      5.689269004     -0.617502138     -0.000000000
       H     1.2500000000     0.0000000000     0.0000000000     -6.061482540      0.331045526     -0.000000000
       H    -0.2375200000     0.9289500000     0.0000000000      0.372213535      0.286456611     -0.000000000
       3
Lattice="15.0 0.0 0.0 0.0 15.0 0.0 0.0 0.0 15.0" Properties=species:S:1:pos:R:3:forces:R:3 energy=        1.5250897806 pbc="T T T"
       O     0.0000000000     0.0000000000     0.0000000000      5.704146443     -0.691673820     -0.000000000
       H     1.3000000000     0.0000000000     0.0000000000     -6.120322263      0.358299644     -0.000000000
       H    -0.2375200000     0.9289500000     0.0000000000      0.416175821      0.333374176     -0.000000000
       3
Lattice="15.0 0.0 0.0 0.0 15.0 0.0 0.0 0.0 15.0" Properties=species:S:1:pos:R:3:forces:R:3 energy=        1.8300007159 pbc="T T T"
       O     0.0000000000     0.0000000000     0.0000000000      5.605982449     -0.756954005     -0.000000000
       H     1.3500000000     0.0000000000     0.0000000000     -6.058911178      0.378288078     -0.000000000
       H    -0.2375200000     0.9289500000     0.0000000000      0.452928729      0.378665979     -0.000000000
       3
Lattice="15.0 0.0 0.0 0.0 15.0 0.0 0.0 0.0 15.0" Properties=species:S:1:pos:R:3:forces:R:3 energy=        2.1295103381 pbc="T T T"
       O     0.0000000000     0.0000000000     0.0000000000      5.426730657     -0.813498607     -0.000000000
       H     1.4000000000     0.0000000000     0.0000000000     -5.908988848      0.391577448     -0.000000000
       H    -0.2375200000     0.9289500000     0.0000000000      0.482258191      0.421921159     -0.000000000
