3
Lattice="15.0 0.0 0.0 0.0 15.0 0.0 0.0 0.0 15.0" Properties=species:S:1:pos:R:3 energy=0.1210985006 pbc="T T T"
O        0.00000000       0.00000000       0.00000000
H        0.70000000       0.00000000       0.00000000
H       -0.17340000       0.67818000       0.00000000
3
Lattice="15.0 0.0 0.0 0.0 15.0 0.0 0.0 0.0 15.0" Properties=species:S:1:pos:R:3 energy=0.0821852509 pbc="T T T"
O        0.00000000       0.00000000       0.00000000
H        0.70000000       0.00000000       0.00000000
H       -0.17938000       0.70157000       0.00000000
3
Lattice="15.0 0.0 0.0 0.0 15.0 0.0 0.0 0.0 15.0" Properties=species:S:1:pos:R:3 energy=0.0605732758 pbc="T T T"
O        0.00000000       0.00000000       0.00000000
H        0.70000000       0.00000000       0.00000000
H       -0.18536000       0.72496000       0.00000000
3
Lattice="15.0 0.0 0.0 0.0 15.0 0.0 0.0 0.0 15.0" Properties=species:S:1:pos:R:3 energy=0.0506073493 pbc="T T T"
O        0.00000000       0.00000000       0.00000000
H        0.70000000       0.00000000       0.00000000
H       -0.19134000       0.74834000       0.00000000
3
Lattice="15.0 0.0 0.0 0.0 15.0 0.0 0.0 0.0 15.0" Properties=species:S:1:pos:R:3 energy=0.0483180492 pbc="T T T"
O        0.00000000       0.00000000       0.00000000
H        0.70000000       0.00000000       0.00000000
H       -0.19732000       0.77172000       0.00000000
3
Lattice="15.0 0.0 0.0 0.0 15.0 0.0 0.0 0.0 15.0" Properties=species:S:1:pos:R:3 energy=0.0504041403 pbc="T T T"
O        0.00000000       0.00000000       0.00000000
H        0.70000000       0.00000000       0.00000000
H       -0.20330000       0.79511000       0.00000000
3
Lattice="15.0 0.0 0.0 0.0 15.0 0.0 0.0 0.0 15.0" Properties=species:S:1:pos:R:3 energy=0.0549645827 pbc="T T T"
O        0.00000000       0.00000000       0.00000000
H        0.70000000       0.00000000       0.00000000
H       -0.20928000       0.81850000       0.00000000
3
Lattice="15.0 0.0 0.0 0.0 15.0 0.0 0.0 0.0 15.0" Properties=species:S:1:pos:R:3 energy=0.0605805925 pbc="T T T"
O        0.00000000       0.00000000       0.00000000
H        0.70000000       0.00000000       0.00000000
H       -0.21526000       0.84189000       0.00000000
3
Lattice="15.0 0.0 0.0 0.0 15.0 0.0 0.0 0.0 15.0" Properties=species:S:1:pos:R:3 energy=0.0663706008 pbc="T T T"
O        0.00000000       0.00000000       0.00000000
H        0.70000000       0.00000000       0.00000000
H       -0.22124000       0.86526000       0.00000000
3
Lattice="15.0 0.0 0.0 0.0 15.0 0.0 0.0 0.0 15.0" Properties=species:S:1:pos:R:3 energy=0.0717078694 pbc="T T T"
O        0.00000000       0.00000000       0.00000000
H        0.70000000       0.00000000       0.00000000
H       -0.22722000       0.88865000       0.00000000
3
Lattice="15.0 0.0 0.0 0.0 15.0 0.0 0.0 0.0 15.0" Properties=species:S:1:pos:R:3 energy=0.0763851084 pbc="T T T"
O        0.00000000       0.00000000       0.00000000
H        0.70000000       0.00000000       0.00000000
H       -0.23319000       0.91204000       0.00000000
3
Lattice="15.0 0.0 0.0 0.0 15.0 0.0 0.0 0.0 15.0" Properties=species:S:1:pos:R:3 energy=0.0803111443 pbc="T T T"
O        0.00000000       0.00000000       0.00000000
H        0.70000000       0.00000000       0.00000000
H       -0.23917000       0.93543000       0.00000000
3
Lattice="15.0 0.0 0.0 0.0 15.0 0.0 0.0 0.0 15.0" Properties=species:S:1:pos:R:3 energy=0.0835563464 pbc="T T T"
O        0.00000000       0.00000000       0.00000000
H        0.70000000       0.00000000       0.00000000
H       -0.24515000       0.95881000       0.00000000
3
Lattice="15.0 0.0 0.0 0.0 15.0 0.0 0.0 0.0 15.0" Properties=species:S:1:pos:R:3 energy=0.0862454740 pbc="T T T"
O        0.00000000       0.00000000       0.00000000
H        0.70000000       0.00000000       0.00000000
H       -0.25113000       0.98219000       0.00000000
3
Lattice="15.0 0.0 0.0 0.0 15.0 0.0 0.0 0.0 15.0" Properties=species:S:1:pos:R:3 energy=0.0886156470 pbc="T T T"
O        0.00000000       0.00000000       0.00000000
H        0.70000000       0.00000000       0.00000000
H       -0.25711000       1.00558000       0.00000000
3
Lattice="15.0 0.0 0.0 0.0 15.0 0.0 0.0 0.0 15.0" Properties=species:S:1:pos:R:3 energy=0.0908693653 pbc="T T T"
O        0.00000000       0.00000000       0.00000000
H        0.70000000       0.00000000       0.00000000
H       -0.26309000       1.02897000       0.00000000
3
Lattice="15.0 0.0 0.0 0.0 15.0 0.0 0.0 0.0 15.0" Properties=species:S:1:pos:R:3 energy=0.0932291513 pbc="T T T"
O        0.00000000       0.00000000       0.00000000
H        0.70000000       0.00000000       0.00000000
H       -0.26907000       1.05236000       0.00000000
3
Lattice="15.0 0.0 0.0 0.0 15.0 0.0 0.0 0.0 15.0" Properties=species:S:1:pos:R:3 energy=0.0958590866 pbc="T T T"
O        0.00000000       0.00000000       0.00000000
H        0.70000000       0.00000000       0.00000000
H       -0.27505000       1.07573000       0.00000000
3
Lattice="15.0 0.0 0.0 0.0 15.0 0.0 0.0 0.0 15.0" Properties=species:S:1:pos:R:3 energy=0.0990466707 pbc="T T T"
O        0.00000000       0.00000000       0.00000000
H        0.70000000       0.00000000       0.00000000
H       -0.28103000       1.09912000       0.00000000
3
Lattice="15.0 0.0 0.0 0.0 15.0 0.0 0.0 0.0 15.0" Properties=species:S:1:pos:R:3 energy=0.1029168019 pbc="T T T"
O        0.00000000       0.00000000       0.00000000
H        0.70000000       0.00000000       0.00000000
H       -0.28701000       1.12251000       0.00000000
3
Lattice="15.0 0.0 0.0 0.0 15.0 0.0 0.0 0.0 15.0" Properties=species:S:1:pos:R:3 energy=0.1076115145 pbc="T T T"
O        0.00000000       0.00000000       0.00000000
H        0.70000000       0.00000000       0.00000000
H       -0.29299000       1.14590000       0.00000000
3
Lattice="15.0 0.0 0.0 0.0 15.0 0.0 0.0 0.0 15.0" Properties=species:S:1:pos:R:3 energy=0.1131858107 pbc="T T T"
O        0.00000000       0.00000000       0.00000000
H        0.70000000       0.00000000       0.00000000
H       -0.29897000       1.16928000       0.00000000
3
Lattice="15.0 0.0 0.0 0.0 15.0 0.0 0.0 0.0 15.0" Properties=species:S:1:pos:R:3 energy=0.1198402238 pbc="T T T"
O        0.00000000       0.00000000       0.00000000
H        0.70000000       0.00000000       0.00000000
H       -0.30495000       1.19266000       0.00000000
3
Lattice="15.0 0.0 0.0 0.0 15.0 0.0 0.0 0.0 15.0" Properties=species:S:1:pos:R:3 energy=0.1275770792 pbc="T T T"
O        0.00000000       0.00000000       0.00000000
H        0.70000000       0.00000000       0.00000000
H       -0.31093000       1.21605000       0.00000000
3
Lattice="15.0 0.0 0.0 0.0 15.0 0.0 0.0 0.0 15.0" Properties=species:S:1:pos:R:3 energy=0.1364288089 pbc="T T T"
O        0.00000000       0.00000000       0.00000000
H        0.70000000       0.00000000       0.00000000
H       -0.31691000       1.23944000       0.00000000
3
Lattice="15.0 0.0 0.0 0.0 15.0 0.0 0.0 0.0 15.0" Properties=species:S:1:pos:R:3 energy=0.1463443567 pbc="T T T"
O        0.00000000       0.00000000       0.00000000
H        0.70000000       0.00000000       0.00000000
H       -0.32289000       1.26282000       0.00000000
3
Lattice="15.0 0.0 0.0 0.0 15.0 0.0 0.0 0.0 15.0" Properties=species:S:1:pos:R:3 energy=0.1574336597 pbc="T T T"
O        0.00000000       0.00000000       0.00000000
H        0.70000000       0.00000000       0.00000000
H       -0.32887000       1.28621000       0.00000000
3
Lattice="15.0 0.0 0.0 0.0 15.0 0.0 0.0 0.0 15.0" Properties=species:S:1:pos:R:3 energy=0.1695850603 pbc="T T T"
O        0.00000000       0.00000000       0.00000000
H        0.70000000       0.00000000       0.00000000
H       -0.33484000       1.30959000       0.00000000
3
Lattice="15.0 0.0 0.0 0.0 15.0 0.0 0.0 0.0 15.0" Properties=species:S:1:pos:R:3 energy=0.1827919038 pbc="T T T"
O        0.00000000       0.00000000       0.00000000
H        0.70000000       0.00000000       0.00000000
H       -0.34082000       1.33298000       0.00000000
3
Lattice="15.0 0.0 0.0 0.0 15.0 0.0 0.0 0.0 15.0" Properties=species:S:1:pos:R:3 energy=0.1969717362 pbc="T T T"
O        0.00000000       0.00000000       0.00000000
H        0.70000000       0.00000000       0.00000000
H       -0.34680000       1.35637000       0.00000000
3
Lattice="15.0 0.0 0.0 0.0 15.0 0.0 0.0 0.0 15.0" Properties=species:S:1:pos:R:3 energy=0.0822753519 pbc="T T T"
O        0.00000000       0.00000000       0.00000000
H        0.72414000       0.00000000       0.00000000
H       -0.17340000       0.67818000       0.00000000
3
Lattice="15.0 0.0 0.0 0.0 15.0 0.0 0.0 0.0 15.0" Properties=species:S:1:pos:R:3 energy=0.0427935937 pbc="T T T"
O        0.00000000       0.00000000       0.00000000
H        0.72414000       0.00000000       0.00000000
H       -0.17938000       0.70157000       0.00000000
3
Lattice="15.0 0.0 0.0 0.0 15.0 0.0 0.0 0.0 15.0" Properties=species:S:1:pos:R:3 energy=0.0206606187 pbc="T T T"
O        0.00000000       0.00000000       0.00000000
H        0.72414000       0.00000000       0.00000000
H       -0.18536000       0.72496000       0.00000000
3
Lattice="15.0 0.0 0.0 0.0 15.0 0.0 0.0 0.0 15.0" Properties=species:S:1:pos:R:3 energy=0.0102143731 pbc="T T T"
O        0.00000000       0.00000000       0.00000000
H        0.72414000       0.00000000       0.00000000
H       -0.19134000       0.74834000       0.00000000
3
Lattice="15.0 0.0 0.0 0.0 15.0 0.0 0.0 0.0 15.0" Properties=species:S:1:pos:R:3 energy=0.0074792281 pbc="T T T"
O        0.00000000       0.00000000       0.00000000
H        0.72414000       0.00000000       0.00000000
H       -0.19732000       0.77172000       0.00000000
3
Lattice="15.0 0.0 0.0 0.0 15.0 0.0 0.0 0.0 15.0" Properties=species:S:1:pos:R:3 energy=0.0091487889 pbc="T T T"
O        0.00000000       0.00000000       0.00000000
H        0.72414000       0.00000000       0.00000000
H       -0.20330000       0.79511000       0.00000000
3
Lattice="15.0 0.0 0.0 0.0 15.0 0.0 0.0 0.0 15.0" Properties=species:S:1:pos:R:3 energy=0.0133179480 pbc="T T T"
O        0.00000000       0.00000000       0.00000000
H        0.72414000       0.00000000       0.00000000
H       -0.20928000       0.81850000       0.00000000
3
Lattice="15.0 0.0 0.0 0.0 15.0 0.0 0.0 0.0 15.0" Properties=species:S:1:pos:R:3 energy=0.0185635564 pbc="T T T"
O        0.00000000       0.00000000       0.00000000
H        0.72414000       0.00000000       0.00000000
H       -0.21526000       0.84189000       0.00000000
3
Lattice="15.0 0.0 0.0 0.0 15.0 0.0 0.0 0.0 15.0" Properties=species:S:1:pos:R:3 energy=0.0239999418 pbc="T T T"
O        0.00000000       0.00000000       0.00000000
H        0.72414000       0.00000000       0.00000000
H       -0.22124000       0.86526000       0.00000000
3
Lattice="15.0 0.0 0.0 0.0 15.0 0.0 0.0 0.0 15.0" Properties=species:S:1:pos:R:3 energy=0.0289944232 pbc="T T T"
O        0.00000000       0.00000000       0.00000000
H        0.72414000       0.00000000       0.00000000
H       -0.22722000       0.88865000       0.00000000
3
Lattice="15.0 0.0 0.0 0.0 15.0 0.0 0.0 0.0 15.0" Properties=species:S:1:pos:R:3 energy=0.0333347824 pbc="T T T"
O        0.00000000       0.00000000       0.00000000
H        0.72414000       0.00000000       0.00000000
H       -0.23319000       0.91204000       0.00000000
3
Lattice="15.0 0.0 0.0 0.0 15.0 0.0 0.0 0.0 15.0" Properties=species:S:1:pos:R:3 energy=0.0369255442 pbc="T T T"
O        0.00000000       0.00000000       0.00000000
H        0.72414000       0.00000000       0.00000000
H       -0.23917000       0.93543000       0.00000000
3
Lattice="15.0 0.0 0.0 0.0 15.0 0.0 0.0 0.0 15.0" Properties=species:S:1:pos:R:3 energy=0.0398323346 pbc="T T T"
O        0.00000000       0.00000000       0.00000000
H        0.72414000       0.00000000       0.00000000
H       -0.24515000       0.95881000       0.00000000
3
Lattice="15.0 0.0 0.0 0.0 15.0 0.0 0.0 0.0 15.0" Properties=species:S:1:pos:R:3 energy=0.0421758178 pbc="T T T"
O        0.00000000       0.00000000       0.00000000
H        0.72414000       0.00000000       0.00000000
H       -0.25113000       0.98219000       0.00000000
3
Lattice="15.0 0.0 0.0 0.0 15.0 0.0 0.0 0.0 15.0" Properties=species:S:1:pos:R:3 energy=0.0441899215 pbc="T T T"
O        0.00000000       0.00000000       0.00000000
H        0.72414000       0.00000000       0.00000000
H       -0.25711000       1.00558000       0.00000000
3
Lattice="15.0 0.0 0.0 0.0 15.0 0.0 0.0 0.0 15.0" Properties=species:S:1:pos:R:3 energy=0.0460753555 pbc="T T T"
O        0.00000000       0.00000000       0.00000000
H        0.72414000       0.00000000       0.00000000
H       -0.26309000       1.02897000       0.00000000
3
Lattice="15.0 0.0 0.0 0.0 15.0 0.0 0.0 0.0 15.0" Properties=species:S:1:pos:R:3 energy=0.0480535481 pbc="T T T"
O        0.00000000       0.00000000       0.00000000
H        0.72414000       0.00000000       0.00000000
H       -0.26907000       1.05236000       0.00000000
3
Lattice="15.0 0.0 0.0 0.0 15.0 0.0 0.0 0.0 15.0" Properties=species:S:1:pos:R:3 energy=0.0502887197 pbc="T T T"
O        0.00000000       0.00000000       0.00000000
H        0.72414000       0.00000000       0.00000000
H       -0.27505000       1.07573000       0.00000000
3
Lattice="15.0 0.0 0.0 0.0 15.0 0.0 0.0 0.0 15.0" Properties=species:S:1:pos:R:3 energy=0.0530678446 pbc="T T T"
O        0.00000000       0.00000000       0.00000000
H        0.72414000       0.00000000       0.00000000
H       -0.28103000       1.09912000       0.00000000
3
Lattice="15.0 0.0 0.0 0.0 15.0 0.0 0.0 0.0 15.0" Properties=species:S:1:pos:R:3 energy=0.0565172170 pbc="T T T"
O        0.00000000       0.00000000       0.00000000
H        0.72414000       0.00000000       0.00000000
H       -0.28701000       1.12251000       0.00000000
3
Lattice="15.0 0.0 0.0 0.0 15.0 0.0 0.0 0.0 15.0" Properties=species:S:1:pos:R:3 energy=0.0607800413 pbc="T T T"
O        0.00000000       0.00000000       0.00000000
H        0.72414000       0.00000000       0.00000000
H       -0.29299000       1.14590000       0.00000000
3
Lattice="15.0 0.0 0.0 0.0 15.0 0.0 0.0 0.0 15.0" Properties=species:S:1:pos:R:3 energy=0.0659130749 pbc="T T T"
O        0.00000000       0.00000000       0.00000000
H        0.72414000       0.00000000       0.00000000
H       -0.29897000       1.16928000       0.00000000
3
Lattice="15.0 0.0 0.0 0.0 15.0 0.0 0.0 0.0 15.0" Properties=species:S:1:pos:R:3 energy=0.0721183151 pbc="T T T"
O        0.00000000       0.00000000       0.00000000
H        0.72414000       0.00000000       0.00000000
H       -0.30495000       1.19266000       0.00000000
3
Lattice="15.0 0.0 0.0 0.0 15.0 0.0 0.0 0.0 15.0" Properties=species:S:1:pos:R:3 energy=0.0793996438 pbc="T T T"
O        0.00000000       0.00000000       0.00000000
H        0.72414000       0.00000000       0.00000000
H       -0.31093000       1.21605000       0.00000000
3
Lattice="15.0 0.0 0.0 0.0 15.0 0.0 0.0 0.0 15.0" Properties=species:S:1:pos:R:3 energy=0.0877915418 pbc="T T T"
O        0.00000000       0.00000000       0.00000000
H        0.72414000       0.00000000       0.00000000
H       -0.31691000       1.23944000       0.00000000
3
Lattice="15.0 0.0 0.0 0.0 15.0 0.0 0.0 0.0 15.0" Properties=species:S:1:pos:R:3 energy=0.0972450050 pbc="T T T"
O        0.00000000       0.00000000       0.00000000
H        0.72414000       0.00000000       0.00000000
H       -0.32289000       1.26282000       0.00000000
3
Lattice="15.0 0.0 0.0 0.0 15.0 0.0 0.0 0.0 15.0" Properties=species:S:1:pos:R:3 energy=0.1078713471 pbc="T T T"
O        0.00000000       0.00000000       0.00000000
H        0.72414000       0.00000000       0.00000000
H       -0.32887000       1.28621000       0.00000000
3
Lattice="15.0 0.0 0.0 0.0 15.0 0.0 0.0 0.0 15.0" Properties=species:S:1:pos:R:3 energy=0.1195610603 pbc="T T T"
O        0.00000000       0.00000000       0.00000000
H        0.72414000       0.00000000       0.00000000
H       -0.33484000       1.30959000       0.00000000
3
Lattice="15.0 0.0 0.0 0.0 15.0 0.0 0.0 0.0 15.0" Properties=species:S:1:pos:R:3 energy=0.1323088913 pbc="T T T"
O        0.00000000       0.00000000       0.00000000
H        0.72414000       0.00000000       0.00000000
H       -0.34082000       1.33298000       0.00000000
3
Lattice="15.0 0.0 0.0 0.0 15.0 0.0 0.0 0.0 15.0" Properties=species:S:1:pos:R:3 energy=0.1460341820 pbc="T T T"
O        0.00000000       0.00000000       0.00000000
H        0.72414000       0.00000000       0.00000000
H       -0.34680000       1.35637000       0.00000000
3
Lattice="15.0 0.0 0.0 0.0 15.0 0.0 0.0 0.0 15.0" Properties=species:S:1:pos:R:3 energy=0.0607241028 pbc="T T T"
O        0.00000000       0.00000000       0.00000000
H        0.74828000       0.00000000       0.00000000
H       -0.17340000       0.67818000       0.00000000
3
Lattice="15.0 0.0 0.0 0.0 15.0 0.0 0.0 0.0 15.0" Properties=species:S:1:pos:R:3 energy=0.0207213310 pbc="T T T"
O        0.00000000       0.00000000       0.00000000
H        0.74828000       0.00000000       0.00000000
H       -0.17938000       0.70157000       0.00000000
3
Lattice="15.0 0.0 0.0 0.0 15.0 0.0 0.0 0.0 15.0" Properties=species:S:1:pos:R:3 energy=-0.0018876122 pbc="T T T"
O        0.00000000       0.00000000       0.00000000
H        0.74828000       0.00000000       0.00000000
H       -0.18536000       0.72496000       0.00000000
3
Lattice="15.0 0.0 0.0 0.0 15.0 0.0 0.0 0.0 15.0" Properties=species:S:1:pos:R:3 energy=-0.0127715638 pbc="T T T"
O        0.00000000       0.00000000       0.00000000
H        0.74828000       0.00000000       0.00000000
H       -0.19134000       0.74834000       0.00000000
3
Lattice="15.0 0.0 0.0 0.0 15.0 0.0 0.0 0.0 15.0" Properties=species:S:1:pos:R:3 energy=-0.0159123979 pbc="T T T"
O        0.00000000       0.00000000       0.00000000
H        0.74828000       0.00000000       0.00000000
H       -0.19732000       0.77172000       0.00000000
3
Lattice="15.0 0.0 0.0 0.0 15.0 0.0 0.0 0.0 15.0" Properties=species:S:1:pos:R:3 energy=-0.0146217827 pbc="T T T"
O        0.00000000       0.00000000       0.00000000
H        0.74828000       0.00000000       0.00000000
H       -0.20330000       0.79511000       0.00000000
3
Lattice="15.0 0.0 0.0 0.0 15.0 0.0 0.0 0.0 15.0" Properties=species:S:1:pos:R:3 energy=-0.0108090303 pbc="T T T"
O        0.00000000       0.00000000       0.00000000
H        0.74828000       0.00000000       0.00000000
H       -0.20928000       0.81850000       0.00000000
3
Lattice="15.0 0.0 0.0 0.0 15.0 0.0 0.0 0.0 15.0" Properties=species:S:1:pos:R:3 energy=-0.0059017247 pbc="T T T"
O        0.00000000       0.00000000       0.00000000
H        0.74828000       0.00000000       0.00000000
H       -0.21526000       0.84189000       0.00000000
3
Lattice="15.0 0.0 0.0 0.0 15.0 0.0 0.0 0.0 15.0" Properties=species:S:1:pos:R:3 energy=-0.0007896173 pbc="T T T"
O        0.00000000       0.00000000       0.00000000
H        0.74828000       0.00000000       0.00000000
H       -0.22124000       0.86526000       0.00000000
3
Lattice="15.0 0.0 0.0 0.0 15.0 0.0 0.0 0.0 15.0" Properties=species:S:1:pos:R:3 energy=0.0038888283 pbc="T T T"
O        0.00000000       0.00000000       0.00000000
H        0.74828000       0.00000000       0.00000000
H       -0.22722000       0.88865000       0.00000000
3
Lattice="15.0 0.0 0.0 0.0 15.0 0.0 0.0 0.0 15.0" Properties=species:S:1:pos:R:3 energy=0.0079167056 pbc="T T T"
O        0.00000000       0.00000000       0.00000000
H        0.74828000       0.00000000       0.00000000
H       -0.23319000       0.91204000       0.00000000
3
Lattice="15.0 0.0 0.0 0.0 15.0 0.0 0.0 0.0 15.0" Properties=species:S:1:pos:R:3 energy=0.0111945854 pbc="T T T"
O        0.00000000       0.00000000       0.00000000
H        0.74828000       0.00000000       0.00000000
H       -0.23917000       0.93543000       0.00000000
3
Lattice="15.0 0.0 0.0 0.0 15.0 0.0 0.0 0.0 15.0" Properties=species:S:1:pos:R:3 energy=0.0137836747 pbc="T T T"
O        0.00000000       0.00000000       0.00000000
H        0.74828000       0.00000000       0.00000000
H       -0.24515000       0.95881000       0.00000000
3
Lattice="15.0 0.0 0.0 0.0 15.0 0.0 0.0 0.0 15.0" Properties=species:S:1:pos:R:3 energy=0.0158008851 pbc="T T T"
O        0.00000000       0.00000000       0.00000000
H        0.74828000       0.00000000       0.00000000
H       -0.25113000       0.98219000       0.00000000
3
Lattice="15.0 0.0 0.0 0.0 15.0 0.0 0.0 0.0 15.0" Properties=species:S:1:pos:R:3 energy=0.0174772710 pbc="T T T"
O        0.00000000       0.00000000       0.00000000
H        0.74828000       0.00000000       0.00000000
H       -0.25711000       1.00558000       0.00000000
3
Lattice="15.0 0.0 0.0 0.0 15.0 0.0 0.0 0.0 15.0" Properties=species:S:1:pos:R:3 energy=0.0190119776 pbc="T T T"
O        0.00000000       0.00000000       0.00000000
H        0.74828000       0.00000000       0.00000000
H       -0.26309000       1.02897000       0.00000000
3
Lattice="15.0 0.0 0.0 0.0 15.0 0.0 0.0 0.0 15.0" Properties=species:S:1:pos:R:3 energy=0.0206255212 pbc="T T T"
O        0.00000000       0.00000000       0.00000000
H        0.74828000       0.00000000       0.00000000
H       -0.26907000       1.05236000       0.00000000
3
Lattice="15.0 0.0 0.0 0.0 15.0 0.0 0.0 0.0 15.0" Properties=species:S:1:pos:R:3 energy=0.0224823784 pbc="T T T"
O        0.00000000       0.00000000       0.00000000
H        0.74828000       0.00000000       0.00000000
H       -0.27505000       1.07573000       0.00000000
3
Lattice="15.0 0.0 0.0 0.0 15.0 0.0 0.0 0.0 15.0" Properties=species:S:1:pos:R:3 energy=0.0248690879 pbc="T T T"
O        0.00000000       0.00000000       0.00000000
H        0.74828000       0.00000000       0.00000000
H       -0.28103000       1.09912000       0.00000000
3
Lattice="15.0 0.0 0.0 0.0 15.0 0.0 0.0 0.0 15.0" Properties=species:S:1:pos:R:3 energy=0.0279132827 pbc="T T T"
O        0.00000000       0.00000000       0.00000000
H        0.74828000       0.00000000       0.00000000
H       -0.28701000       1.12251000       0.00000000
3
Lattice="15.0 0.0 0.0 0.0 15.0 0.0 0.0 0.0 15.0" Properties=species:S:1:pos:R:3 energy=0.0317593837 pbc="T T T"
O        0.00000000       0.00000000       0.00000000
H        0.74828000       0.00000000       0.00000000
H       -0.29299000       1.14590000       0.00000000
3
Lattice="15.0 0.0 0.0 0.0 15.0 0.0 0.0 0.0 15.0" Properties=species:S:1:pos:R:3 energy=0.0364658327 pbc="T T T"
O        0.00000000       0.00000000       0.00000000
H        0.74828000       0.00000000       0.00000000
H       -0.29897000       1.16928000       0.00000000
3
Lattice="15.0 0.0 0.0 0.0 15.0 0.0 0.0 0.0 15.0" Properties=species:S:1:pos:R:3 energy=0.0422360254 pbc="T T T"
O        0.00000000       0.00000000       0.00000000
H        0.74828000       0.00000000       0.00000000
H       -0.30495000       1.19266000       0.00000000
3
Lattice="15.0 0.0 0.0 0.0 15.0 0.0 0.0 0.0 15.0" Properties=species:S:1:pos:R:3 energy=0.0490753350 pbc="T T T"
O        0.00000000       0.00000000       0.00000000
H        0.74828000       0.00000000       0.00000000
H       -0.31093000       1.21605000       0.00000000
3
Lattice="15.0 0.0 0.0 0.0 15.0 0.0 0.0 0.0 15.0" Properties=species:S:1:pos:R:3 energy=0.0570202099 pbc="T T T"
O        0.00000000       0.00000000       0.00000000
H        0.74828000       0.00000000       0.00000000
H       -0.31691000       1.23944000       0.00000000
3
Lattice="15.0 0.0 0.0 0.0 15.0 0.0 0.0 0.0 15.0" Properties=species:S:1:pos:R:3 energy=0.0660236130 pbc="T T T"
O        0.00000000       0.00000000       0.00000000
H        0.74828000       0.00000000       0.00000000
H       -0.32289000       1.26282000       0.00000000
3
Lattice="15.0 0.0 0.0 0.0 15.0 0.0 0.0 0.0 15.0" Properties=species:S:1:pos:R:3 energy=0.0761981808 pbc="T T T"
O        0.00000000       0.00000000       0.00000000
H        0.74828000       0.00000000       0.00000000
H       -0.32887000       1.28621000       0.00000000
3
Lattice="15.0 0.0 0.0 0.0 15.0 0.0 0.0 0.0 15.0" Properties=species:S:1:pos:R:3 energy=0.0874364680 pbc="T T T"
O        0.00000000       0.00000000       0.00000000
H        0.74828000       0.00000000       0.00000000
H       -0.33484000       1.30959000       0.00000000
3
Lattice="15.0 0.0 0.0 0.0 15.0 0.0 0.0 0.0 15.0" Properties=species:S:1:pos:R:3 energy=0.0997344811 pbc="T T T"
O        0.00000000       0.00000000       0.00000000
H        0.74828000       0.00000000       0.00000000
H       -0.34082000       1.33298000       0.00000000
3
Lattice="15.0 0.0 0.0 0.0 15.0 0.0 0.0 0.0 15.0" Properties=species:S:1:pos:R:3 energy=0.1130136629 pbc="T T T"
O        0.00000000       0.00000000       0.00000000
H        0.74828000       0.00000000       0.00000000
H       -0.34680000       1.35637000       0.00000000
3
Lattice="15.0 0.0 0.0 0.0 15.0 0.0 0.0 0.0 15.0" Properties=species:S:1:pos:R:3 energy=0.0508048888 pbc="T T T"
O        0.00000000       0.00000000       0.00000000
H        0.77241000       0.00000000       0.00000000
H       -0.17340000       0.67818000       0.00000000
3
Lattice="15.0 0.0 0.0 0.0 15.0 0.0 0.0 0.0 15.0" Properties=species:S:1:pos:R:3 energy=0.0103216183 pbc="T T T"
O        0.00000000       0.00000000       0.00000000
H        0.77241000       0.00000000       0.00000000
H       -0.17938000       0.70157000       0.00000000
3
Lattice="15.0 0.0 0.0 0.0 15.0 0.0 0.0 0.0 15.0" Properties=species:S:1:pos:R:3 energy=-0.0127252050 pbc="T T T"
O        0.00000000       0.00000000       0.00000000
H        0.77241000       0.00000000       0.00000000
H       -0.18536000       0.72496000       0.00000000
3
Lattice="15.0 0.0 0.0 0.0 15.0 0.0 0.0 0.0 15.0" Properties=species:S:1:pos:R:3 energy=-0.0240112947 pbc="T T T"
O        0.00000000       0.00000000       0.00000000
H        0.77241000       0.00000000       0.00000000
H       -0.19134000       0.74834000       0.00000000
3
Lattice="15.0 0.0 0.0 0.0 15.0 0.0 0.0 0.0 15.0" Properties=species:S:1:pos:R:3 energy=-0.0275249085 pbc="T T T"
O        0.00000000       0.00000000       0.00000000
H        0.77241000       0.00000000       0.00000000
H       -0.19732000       0.77172000       0.00000000
3
Lattice="15.0 0.0 0.0 0.0 15.0 0.0 0.0 0.0 15.0" Properties=species:S:1:pos:R:3 energy=-0.0265831677 pbc="T T T"
O        0.00000000       0.00000000       0.00000000
H        0.77241000       0.00000000       0.00000000
H       -0.20330000       0.79511000       0.00000000
3
Lattice="15.0 0.0 0.0 0.0 15.0 0.0 0.0 0.0 15.0" Properties=species:S:1:pos:R:3 energy=-0.0230997112 pbc="T T T"
O        0.00000000       0.00000000       0.00000000
H        0.77241000       0.00000000       0.00000000
H       -0.20928000       0.81850000       0.00000000
3
Lattice="15.0 0.0 0.0 0.0 15.0 0.0 0.0 0.0 15.0" Properties=species:S:1:pos:R:3 energy=-0.0185065747 pbc="T T T"
O        0.00000000       0.00000000       0.00000000
H        0.77241000       0.00000000       0.00000000
H       -0.21526000       0.84189000       0.00000000
3
Lattice="15.0 0.0 0.0 0.0 15.0 0.0 0.0 0.0 15.0" Properties=species:S:1:pos:R:3 energy=-0.0136974743 pbc="T T T"
O        0.00000000       0.00000000       0.00000000
H        0.77241000       0.00000000       0.00000000
H       -0.22124000       0.86526000       0.00000000
3
Lattice="15.0 0.0 0.0 0.0 15.0 0.0 0.0 0.0 15.0" Properties=species:S:1:pos:R:3 energy=-0.0093163484 pbc="T T T"
O        0.00000000       0.00000000       0.00000000
H        0.77241000       0.00000000       0.00000000
H       -0.22722000       0.88865000       0.00000000
3
Lattice="15.0 0.0 0.0 0.0 15.0 0.0 0.0 0.0 15.0" Properties=species:S:1:pos:R:3 energy=-0.0055844493 pbc="T T T"
O        0.00000000       0.00000000       0.00000000
H        0.77241000       0.00000000       0.00000000
H       -0.23319000       0.91204000       0.00000000
3
Lattice="15.0 0.0 0.0 0.0 15.0 0.0 0.0 0.0 15.0" Properties=species:S:1:pos:R:3 energy=-0.0026046757 pbc="T T T"
O        0.00000000       0.00000000       0.00000000
H        0.77241000       0.00000000       0.00000000
H       -0.23917000       0.93543000       0.00000000
3
Lattice="15.0 0.0 0.0 0.0 15.0 0.0 0.0 0.0 15.0" Properties=species:S:1:pos:R:3 energy=-0.0003197907 pbc="T T T"
O        0.00000000       0.00000000       0.00000000
H        0.77241000       0.00000000       0.00000000
H       -0.24515000       0.95881000       0.00000000
3
Lattice="15.0 0.0 0.0 0.0 15.0 0.0 0.0 0.0 15.0" Properties=species:S:1:pos:R:3 energy=0.0013837949 pbc="T T T"
O        0.00000000       0.00000000       0.00000000
H        0.77241000       0.00000000       0.00000000
H       -0.25113000       0.98219000       0.00000000
3
Lattice="15.0 0.0 0.0 0.0 15.0 0.0 0.0 0.0 15.0" Properties=species:S:1:pos:R:3 energy=0.0027346184 pbc="T T T"
O        0.00000000       0.00000000       0.00000000
H        0.77241000       0.00000000       0.00000000
H       -0.25711000       1.00558000       0.00000000
3
Lattice="15.0 0.0 0.0 0.0 15.0 0.0 0.0 0.0 15.0" Properties=species:S:1:pos:R:3 energy=0.0039305405 pbc="T T T"
O        0.00000000       0.00000000       0.00000000
H        0.77241000       0.00000000       0.00000000
H       -0.26309000       1.02897000       0.00000000
3
Lattice="15.0 0.0 0.0 0.0 15.0 0.0 0.0 0.0 15.0" Properties=species:S:1:pos:R:3 energy=0.0051913429 pbc="T T T"
O        0.00000000       0.00000000       0.00000000
H        0.77241000       0.00000000       0.00000000
H       -0.26907000       1.05236000       0.00000000
3
Lattice="15.0 0.0 0.0 0.0 15.0 0.0 0.0 0.0 15.0" Properties=species:S:1:pos:R:3 energy=0.0066818287 pbc="T T T"
O        0.00000000       0.00000000       0.00000000
H        0.77241000       0.00000000       0.00000000
H       -0.27505000       1.07573000       0.00000000
3
Lattice="15.0 0.0 0.0 0.0 15.0 0.0 0.0 0.0 15.0" Properties=species:S:1:pos:R:3 energy=0.0086882373 pbc="T T T"
O        0.00000000       0.00000000       0.00000000