3
Lattice="15.0 0.0 0.0 0.0 15.0 0.0 0.0 0.0 15.0" Properties=species:S:1:pos:R:3 energy=-0.0375365750 pbc="T T T"
O        0.00000000       0.00000000       0.00000000
H        0.70000000       0.00000000       0.00000000
H       -0.17340000       0.67818000       0.00000000
3
Lattice="15.0 0.0 0.0 0.0 15.0 0.0 0.0 0.0 15.0" Properties=species:S:1:pos:R:3 energy=-0.0347472585 pbc="T T T"
O        0.00000000       0.00000000       0.00000000
H        0.70000000       0.00000000       0.00000000
H       -0.17938000       0.70157000       0.00000000
3
Lattice="15.0 0.0 0.0 0.0 15.0 0.0 0.0 0.0 15.0" Properties=species:S:1:pos:R:3 energy=-0.0292255725 pbc="T T T"
O        0.00000000       0.00000000       0.00000000
H        0.70000000       0.00000000       0.00000000
H       -0.18536000       0.72496000       0.00000000
3
Lattice="15.0 0.0 0.0 0.0 15.0 0.0 0.0 0.0 15.0" Properties=species:S:1:pos:R:3 energy=-0.0247647039 pbc="T T T"
O        0.00000000       0.00000000       0.00000000
H        0.70000000       0.00000000       0.00000000
H       -0.19134000       0.74834000       0.00000000
3
Lattice="15.0 0.0 0.0 0.0 15.0 0.0 0.0 0.0 15.0" Properties=species:S:1:pos:R:3 energy=-0.0216013051 pbc="T T T"
O        0.00000000       0.00000000       0.00000000
H        0.70000000       0.00000000       0.00000000
H       -0.19732000       0.77172000       0.00000000
3
Lattice="15.0 0.0 0.0 0.0 15.0 0.0 0.0 0.0 15.0" Properties=species:S:1:pos:R:3 energy=-0.0183605052 pbc="T T T"
O        0.00000000       0.00000000       0.00000000
H        0.70000000       0.00000000       0.00000000
H       -0.20330000       0.79511000       0.00000000
3
Lattice="15.0 0.0 0.0 0.0 15.0 0.0 0.0 0.0 15.0" Properties=species:S:1:pos:R:3 energy=-0.0150572760 pbc="T T T"
O        0.00000000       0.00000000       0.00000000
H        0.70000000       0.00000000       0.00000000
H       -0.20928000       0.81850000       0.00000000
3
Lattice="15.0 0.0 0.0 0.0 15.0 0.0 0.0 0.0 15.0" Properties=species:S:1:pos:R:3 energy=-0.0117681358 pbc="T T T"
O        0.00000000       0.00000000       0.00000000
H        0.70000000       0.00000000       0.00000000
H       -0.21526000       0.84189000       0.00000000
3
Lattice="15.0 0.0 0.0 0.0 15.0 0.0 0.0 0.0 15.0" Properties=species:S:1:pos:R:3 energy=-0.0086339298 pbc="T T T"
O        0.00000000       0.00000000       0.00000000
H        0.70000000       0.00000000       0.00000000
H       -0.22124000       0.86526000       0.00000000
3
Lattice="15.0 0.0 0.0 0.0 15.0 0.0 0.0 0.0 15.0" Properties=species:S:1:pos:R:3 energy=-0.0054822472 pbc="T T T"
O        0.00000000       0.00000000       0.00000000
H        0.70000000       0.00000000       0.00000000
H       -0.22722000       0.88865000       0.00000000
3
Lattice="15.0 0.0 0.0 0.0 15.0 0.0 0.0 0.0 15.0" Properties=species:S:1:pos:R:3 energy=-0.0023077963 pbc="T T T"
O        0.00000000       0.00000000       0.00000000
H        0.70000000       0.00000000       0.00000000
H       -0.23319000       0.91204000       0.00000000
3
Lattice="15.0 0.0 0.0 0.0 15.0 0.0 0.0 0.0 15.0" Properties=species:S:1:pos:R:3 energy=0.0009158421 pbc="T T T"
O        0.00000000       0.00000000       0.00000000
H        0.70000000       0.00000000       0.00000000
H       -0.23917000       0.93543000       0.00000000
3
Lattice="15.0 0.0 0.0 0.0 15.0 0.0 0.0 0.0 15.0" Properties=species:S:1:pos:R:3 energy=0.0042344854 pbc="T T T"
O        0.00000000       0.00000000       0.00000000
H        0.70000000       0.00000000       0.00000000
H       -0.24515000       0.95881000       0.00000000
3
Lattice="15.0 0.0 0.0 0.0 15.0 0.0 0.0 0.0 15.0" Properties=species:S:1:pos:R:3 energy=0.0076391051 pbc="T T T"
O        0.00000000       0.00000000       0.00000000
H        0.70000000       0.00000000       0.00000000
H       -0.25113000       0.98219000       0.00000000
3
Lattice="15.0 0.0 0.0 0.0 15.0 0.0 0.0 0.0 15.0" Properties=species:S:1:pos:R:3 energy=0.0111689095 pbc="T T T"
O        0.00000000       0.00000000       0.00000000
H        0.70000000       0.00000000       0.00000000
H       -0.25711000       1.00558000       0.00000000
3
Lattice="15.0 0.0 0.0 0.0 15.0 0.0 0.0 0.0 15.0" Properties=species:S:1:pos:R:3 energy=0.0148166322 pbc="T T T"
O        0.00000000       0.00000000       0.00000000
H        0.70000000       0.00000000       0.00000000
H       -0.26309000       1.02897000       0.00000000
3
Lattice="15.0 0.0 0.0 0.0 15.0 0.0 0.0 0.0 15.0" Properties=species:S:1:pos:R:3 energy=0.0186038624 pbc="T T T"
O        0.00000000       0.00000000       0.00000000
H        0.70000000       0.00000000       0.00000000
H       -0.26907000       1.05236000       0.00000000
3
Lattice="15.0 0.0 0.0 0.0 15.0 0.0 0.0 0.0 15.0" Properties=species:S:1:pos:R:3 energy=0.0224574629 pbc="T T T"
O        0.00000000       0.00000000       0.00000000
H        0.70000000       0.00000000       0.00000000
H       -0.27505000       1.07573000       0.00000000
3
Lattice="15.0 0.0 0.0 0.0 15.0 0.0 0.0 0.0 15.0" Properties=species:S:1:pos:R:3 energy=0.0264883771 pbc="T T T"
O        0.00000000       0.00000000       0.00000000
H        0.70000000       0.00000000       0.00000000
H       -0.28103000       1.09912000       0.00000000
3
Lattice="15.0 0.0 0.0 0.0 15.0 0.0 0.0 0.0 15.0" Properties=species:S:1:pos:R:3 energy=0.0306196022 pbc="T T T"
O        0.00000000       0.00000000       0.00000000
H        0.70000000       0.00000000       0.00000000
H       -0.28701000       1.12251000       0.00000000
3
Lattice="15.0 0.0 0.0 0.0 15.0 0.0 0.0 0.0 15.0" Properties=species:S:1:pos:R:3 energy=0.0348667158 pbc="T T T"
O        0.00000000       0.00000000       0.00000000
H        0.70000000       0.00000000       0.00000000
H       -0.29299000       1.14590000       0.00000000
3
Lattice="15.0 0.0 0.0 0.0 15.0 0.0 0.0 0.0 15.0" Properties=species:S:1:pos:R:3 energy=0.0391350575 pbc="T T T"
O        0.00000000       0.00000000       0.00000000
H        0.70000000       0.00000000       0.00000000
H       -0.29897000       1.16928000       0.00000000
3
Lattice="15.0 0.0 0.0 0.0 15.0 0.0 0.0 0.0 15.0" Properties=species:S:1:pos:R:3 energy=0.0435519630 pbc="T T T"
O        0.00000000       0.00000000       0.00000000
H        0.70000000       0.00000000       0.00000000
H       -0.30495000       1.19266000       0.00000000
3
Lattice="15.0 0.0 0.0 0.0 15.0 0.0 0.0 0.0 15.0" Properties=species:S:1:pos:R:3 energy=0.0480209085 pbc="T T T"
O        0.00000000       0.00000000       0.00000000
H        0.70000000       0.00000000       0.00000000
H       -0.31093000       1.21605000       0.00000000
3
Lattice="15.0 0.0 0.0 0.0 15.0 0.0 0.0 0.0 15.0" Properties=species:S:1:pos:R:3 energy=0.0525508799 pbc="T T T"
O        0.00000000       0.00000000       0.00000000
H        0.70000000       0.00000000       0.00000000
H       -0.31691000       1.23944000       0.00000000
3
Lattice="15.0 0.0 0.0 0.0 15.0 0.0 0.0 0.0 15.0" Properties=species:S:1:pos:R:3 energy=0.0570544281 pbc="T T T"
O        0.00000000       0.00000000       0.00000000
H        0.70000000       0.00000000       0.00000000
H       -0.32289000       1.26282000       0.00000000
3
Lattice="15.0 0.0 0.0 0.0 15.0 0.0 0.0 0.0 15.0" Properties=species:S:1:pos:R:3 energy=0.0616553547 pbc="T T T"
O        0.00000000       0.00000000       0.00000000
H        0.70000000       0.00000000       0.00000000
H       -0.32887000       1.28621000       0.00000000
3
Lattice="15.0 0.0 0.0 0.0 15.0 0.0 0.0 0.0 15.0" Properties=species:S:1:pos:R:3 energy=0.0662162667 pbc="T T T"
O        0.00000000       0.00000000       0.00000000
H        0.70000000       0.00000000       0.00000000
H       -0.33484000       1.30959000       0.00000000
3
Lattice="15.0 0.0 0.0 0.0 15.0 0.0 0.0 0.0 15.0" Properties=species:S:1:pos:R:3 energy=0.0707710330 pbc="T T T"
O        0.00000000       0.00000000       0.00000000
H        0.70000000       0.00000000       0.00000000
H       -0.34082000       1.33298000       0.00000000
3
Lattice="15.0 0.0 0.0 0.0 15.0 0.0 0.0 0.0 15.0" Properties=species:S:1:pos:R:3 energy=0.0753753622 pbc="T T T"
O        0.00000000       0.00000000       0.00000000
H        0.70000000       0.00000000       0.00000000
H       -0.34680000       1.35637000       0.00000000
3
Lattice="15.0 0.0 0.0 0.0 15.0 0.0 0.0 0.0 15.0" Properties=species:S:1:pos:R:3 energy=-0.0346571480 pbc="T T T"
O        0.00000000       0.00000000       0.00000000
H        0.72414000       0.00000000       0.00000000
H       -0.17340000       0.67818000       0.00000000
3
Lattice="15.0 0.0 0.0 0.0 15.0 0.0 0.0 0.0 15.0" Properties=species:S:1:pos:R:3 energy=-0.0324363400 pbc="T T T"
O        0.00000000       0.00000000       0.00000000
H        0.72414000       0.00000000       0.00000000
H       -0.17938000       0.70157000       0.00000000
3
Lattice="15.0 0.0 0.0 0.0 15.0 0.0 0.0 0.0 15.0" Properties=species:S:1:pos:R:3 energy=-0.0274356540 pbc="T T T"
O        0.00000000       0.00000000       0.00000000
H        0.72414000       0.00000000       0.00000000
H       -0.18536000       0.72496000       0.00000000
3
Lattice="15.0 0.0 0.0 0.0 15.0 0.0 0.0 0.0 15.0" Properties=species:S:1:pos:R:3 energy=-0.0234551045 pbc="T T T"
O        0.00000000       0.00000000       0.00000000
H        0.72414000       0.00000000       0.00000000
H       -0.19134000       0.74834000       0.00000000
3
Lattice="15.0 0.0 0.0 0.0 15.0 0.0 0.0 0.0 15.0" Properties=species:S:1:pos:R:3 energy=-0.0207375506 pbc="T T T"
O        0.00000000       0.00000000       0.00000000
H        0.72414000       0.00000000       0.00000000
H       -0.19732000       0.77172000       0.00000000
3
Lattice="15.0 0.0 0.0 0.0 15.0 0.0 0.0 0.0 15.0" Properties=species:S:1:pos:R:3 energy=-0.0179132809 pbc="T T T"
O        0.00000000       0.00000000       0.00000000
H        0.72414000       0.00000000       0.00000000
H       -0.20330000       0.79511000       0.00000000
3
Lattice="15.0 0.0 0.0 0.0 15.0 0.0 0.0 0.0 15.0" Properties=species:S:1:pos:R:3 energy=-0.0150013351 pbc="T T T"
O        0.00000000       0.00000000       0.00000000
H        0.72414000       0.00000000       0.00000000
H       -0.20928000       0.81850000       0.00000000
3
Lattice="15.0 0.0 0.0 0.0 15.0 0.0 0.0 0.0 15.0" Properties=species:S:1:pos:R:3 energy=-0.0120825963 pbc="T T T"
O        0.00000000       0.00000000       0.00000000
H        0.72414000       0.00000000       0.00000000
H       -0.21526000       0.84189000       0.00000000
3
Lattice="15.0 0.0 0.0 0.0 15.0 0.0 0.0 0.0 15.0" Properties=species:S:1:pos:R:3 energy=-0.0093020131 pbc="T T T"
O        0.00000000       0.00000000       0.00000000
H        0.72414000       0.00000000       0.00000000
H       -0.22124000       0.86526000       0.00000000
3
Lattice="15.0 0.0 0.0 0.0 15.0 0.0 0.0 0.0 15.0" Properties=species:S:1:pos:R:3 energy=-0.0064931178 pbc="T T T"
O        0.00000000       0.00000000       0.00000000
H        0.72414000       0.00000000       0.00000000
H       -0.22722000       0.88865000       0.00000000
3
Lattice="15.0 0.0 0.0 0.0 15.0 0.0 0.0 0.0 15.0" Properties=species:S:1:pos:R:3 energy=-0.0036555466 pbc="T T T"
O        0.00000000       0.00000000       0.00000000
H        0.72414000       0.00000000       0.00000000
H       -0.23319000       0.91204000       0.00000000
3
Lattice="15.0 0.0 0.0 0.0 15.0 0.0 0.0 0.0 15.0" Properties=species:S:1:pos:R:3 energy=-0.0007671824 pbc="T T T"
O        0.00000000       0.00000000       0.00000000
H        0.72414000       0.00000000       0.00000000
H       -0.23917000       0.93543000       0.00000000
3
Lattice="15.0 0.0 0.0 0.0 15.0 0.0 0.0 0.0 15.0" Properties=species:S:1:pos:R:3 energy=0.0022130493 pbc="T T T"
O        0.00000000       0.00000000       0.00000000
H        0.72414000       0.00000000       0.00000000
H       -0.24515000       0.95881000       0.00000000
3
Lattice="15.0 0.0 0.0 0.0 15.0 0.0 0.0 0.0 15.0" Properties=species:S:1:pos:R:3 energy=0.0052720246 pbc="T T T"
O        0.00000000       0.00000000       0.00000000
H        0.72414000       0.00000000       0.00000000
H       -0.25113000       0.98219000       0.00000000
3
Lattice="15.0 0.0 0.0 0.0 15.0 0.0 0.0 0.0 15.0" Properties=species:S:1:pos:R:3 energy=0.0084457597 pbc="T T T"
O        0.00000000       0.00000000       0.00000000
H        0.72414000       0.00000000       0.00000000
H       -0.25711000       1.00558000       0.00000000
3
Lattice="15.0 0.0 0.0 0.0 15.0 0.0 0.0 0.0 15.0" Properties=species:S:1:pos:R:3 energy=0.0117251981 pbc="T T T"
O        0.00000000       0.00000000       0.00000000
H        0.72414000       0.00000000       0.00000000
H       -0.26309000       1.02897000       0.00000000
3
Lattice="15.0 0.0 0.0 0.0 15.0 0.0 0.0 0.0 15.0" Properties=species:S:1:pos:R:3 energy=0.0151308348 pbc="T T T"
O        0.00000000       0.00000000       0.00000000
H        0.72414000       0.00000000       0.00000000
H       -0.26907000       1.05236000       0.00000000
3
Lattice="15.0 0.0 0.0 0.0 15.0 0.0 0.0 0.0 15.0" Properties=species:S:1:pos:R:3 energy=0.0185896716 pbc="T T T"
O        0.00000000       0.00000000       0.00000000
H        0.72414000       0.00000000       0.00000000
H       -0.27505000       1.07573000       0.00000000
3
Lattice="15.0 0.0 0.0 0.0 15.0 0.0 0.0 0.0 15.0" Properties=species:S:1:pos:R:3 energy=0.0222121266 pbc="T T T"
O        0.00000000       0.00000000       0.00000000
H        0.72414000       0.00000000       0.00000000
H       -0.28103000       1.09912000       0.00000000
3
Lattice="15.0 0.0 0.0 0.0 15.0 0.0 0.0 0.0 15.0" Properties=species:S:1:pos:R:3 energy=0.0259225929 pbc="T T T"
O        0.00000000       0.00000000       0.00000000
H        0.72414000       0.00000000       0.00000000
H       -0.28701000       1.12251000       0.00000000
3
Lattice="15.0 0.0 0.0 0.0 15.0 0.0 0.0 0.0 15.0" Properties=species:S:1:pos:R:3 energy=0.0297378183 pbc="T T T"
O        0.00000000       0.00000000       0.00000000
H        0.72414000       0.00000000       0.00000000
H       -0.29299000       1.14590000       0.00000000
3
Lattice="15.0 0.0 0.0 0.0 15.0 0.0 0.0 0.0 15.0" Properties=species:S:1:pos:R:3 energy=0.0335648974 pbc="T T T"
O        0.00000000       0.00000000       0.00000000
H        0.72414000       0.00000000       0.00000000
H       -0.29897000       1.16928000       0.00000000
3
Lattice="15.0 0.0 0.0 0.0 15.0 0.0 0.0 0.0 15.0" Properties=species:S:1:pos:R:3 energy=0.0375326300 pbc="T T T"
O        0.00000000       0.00000000       0.00000000
H        0.72414000       0.00000000       0.00000000
H       -0.30495000       1.19266000       0.00000000
3
Lattice="15.0 0.0 0.0 0.0 15.0 0.0 0.0 0.0 15.0" Properties=species:S:1:pos:R:3 energy=0.0415460487 pbc="T T T"
O        0.00000000       0.00000000       0.00000000
H        0.72414000       0.00000000       0.00000000
H       -0.31093000       1.21605000       0.00000000
3
Lattice="15.0 0.0 0.0 0.0 15.0 0.0 0.0 0.0 15.0" Properties=species:S:1:pos:R:3 energy=0.0456161885 pbc="T T T"
O        0.00000000       0.00000000       0.00000000
H        0.72414000       0.00000000       0.00000000
H       -0.31691000       1.23944000       0.00000000
3
Lattice="15.0 0.0 0.0 0.0 15.0 0.0 0.0 0.0 15.0" Properties=species:S:1:pos:R:3 energy=0.0496576520 pbc="T T T"
O        0.00000000       0.00000000       0.00000000
H        0.72414000       0.00000000       0.00000000
H       -0.32289000       1.26282000       0.00000000
3
Lattice="15.0 0.0 0.0 0.0 15.0 0.0 0.0 0.0 15.0" Properties=species:S:1:pos:R:3 energy=0.0537956177 pbc="T T T"
O        0.00000000       0.00000000       0.00000000
H        0.72414000       0.00000000       0.00000000
H       -0.32887000       1.28621000       0.00000000
3
Lattice="15.0 0.0 0.0 0.0 15.0 0.0 0.0 0.0 15.0" Properties=species:S:1:pos:R:3 energy=0.0578948423 pbc="T T T"
O        0.00000000       0.00000000       0.00000000
H        0.72414000       0.00000000       0.00000000
H       -0.33484000       1.30959000       0.00000000
3
Lattice="15.0 0.0 0.0 0.0 15.0 0.0 0.0 0.0 15.0" Properties=species:S:1:pos:R:3 energy=0.0619905961 pbc="T T T"
O        0.00000000       0.00000000       0.00000000
H        0.72414000       0.00000000       0.00000000
H       -0.34082000       1.33298000       0.00000000
3
Lattice="15.0 0.0 0.0 0.0 15.0 0.0 0.0 0.0 15.0" Properties=species:S:1:pos:R:3 energy=0.0661403836 pbc="T T T"
O        0.00000000       0.00000000       0.00000000
H        0.72414000       0.00000000       0.00000000
H       -0.34680000       1.35637000       0.00000000
3
Lattice="15.0 0.0 0.0 0.0 15.0 0.0 0.0 0.0 15.0" Properties=species:S:1:pos:R:3 energy=-0.0290747234 pbc="T T T"
O        0.00000000       0.00000000       0.00000000
H        0.74828000       0.00000000       0.00000000
H       -0.17340000       0.67818000       0.00000000
3
Lattice="15.0 0.0 0.0 0.0 15.0 0.0 0.0 0.0 15.0" Properties=species:S:1:pos:R:3 energy=-0.0273749290 pbc="T T T"
O        0.00000000       0.00000000       0.00000000
H        0.74828000       0.00000000       0.00000000
H       -0.17938000       0.70157000       0.00000000
3
Lattice="15.0 0.0 0.0 0.0 15.0 0.0 0.0 0.0 15.0" Properties=species:S:1:pos:R:3 energy=-0.0228502111 pbc="T T T"
O        0.00000000       0.00000000       0.00000000
H        0.74828000       0.00000000       0.00000000
H       -0.18536000       0.72496000       0.00000000
3
Lattice="15.0 0.0 0.0 0.0 15.0 0.0 0.0 0.0 15.0" Properties=species:S:1:pos:R:3 energy=-0.0193073676 pbc="T T T"
O        0.00000000       0.00000000       0.00000000
H        0.74828000       0.00000000       0.00000000
H       -0.19134000       0.74834000       0.00000000
3
Lattice="15.0 0.0 0.0 0.0 15.0 0.0 0.0 0.0 15.0" Properties=species:S:1:pos:R:3 energy=-0.0169955028 pbc="T T T"
O        0.00000000       0.00000000       0.00000000
H        0.74828000       0.00000000       0.00000000
H       -0.19732000       0.77172000       0.00000000
3
Lattice="15.0 0.0 0.0 0.0 15.0 0.0 0.0 0.0 15.0" Properties=species:S:1:pos:R:3 energy=-0.0145501788 pbc="T T T"
O        0.00000000       0.00000000       0.00000000
H        0.74828000       0.00000000       0.00000000
H       -0.20330000       0.79511000       0.00000000
3
Lattice="15.0 0.0 0.0 0.0 15.0 0.0 0.0 0.0 15.0" Properties=species:S:1:pos:R:3 energy=-0.0119946396 pbc="T T T"
O        0.00000000       0.00000000       0.00000000
H        0.74828000       0.00000000       0.00000000
H       -0.20928000       0.81850000       0.00000000
3
Lattice="15.0 0.0 0.0 0.0 15.0 0.0 0.0 0.0 15.0" Properties=species:S:1:pos:R:3 energy=-0.0094142036 pbc="T T T"
O        0.00000000       0.00000000       0.00000000
H        0.74828000       0.00000000       0.00000000
H       -0.21526000       0.84189000       0.00000000
3
Lattice="15.0 0.0 0.0 0.0 15.0 0.0 0.0 0.0 15.0" Properties=species:S:1:pos:R:3 energy=-0.0069578985 pbc="T T T"
O        0.00000000       0.00000000       0.00000000
H        0.74828000       0.00000000       0.00000000
H       -0.22124000       0.86526000       0.00000000
3
Lattice="15.0 0.0 0.0 0.0 15.0 0.0 0.0 0.0 15.0" Properties=species:S:1:pos:R:3 energy=-0.0044650389 pbc="T T T"
O        0.00000000       0.00000000       0.00000000
H        0.74828000       0.00000000       0.00000000
H       -0.22722000       0.88865000       0.00000000
3
Lattice="15.0 0.0 0.0 0.0 15.0 0.0 0.0 0.0 15.0" Properties=species:S:1:pos:R:3 energy=-0.0019399497 pbc="T T T"
O        0.00000000       0.00000000       0.00000000
H        0.74828000       0.00000000       0.00000000
H       -0.23319000       0.91204000       0.00000000
3
Lattice="15.0 0.0 0.0 0.0 15.0 0.0 0.0 0.0 15.0" Properties=species:S:1:pos:R:3 energy=0.0006355326 pbc="T T T"
O        0.00000000       0.00000000       0.00000000
H        0.74828000       0.00000000       0.00000000
H       -0.23917000       0.93543000       0.00000000
3
Lattice="15.0 0.0 0.0 0.0 15.0 0.0 0.0 0.0 15.0" Properties=species:S:1:pos:R:3 energy=0.0032980631 pbc="T T T"
O        0.00000000       0.00000000       0.00000000
H        0.74828000       0.00000000       0.00000000
H       -0.24515000       0.95881000       0.00000000
3
Lattice="15.0 0.0 0.0 0.0 15.0 0.0 0.0 0.0 15.0" Properties=species:S:1:pos:R:3 energy=0.0060307656 pbc="T T T"
O        0.00000000       0.00000000       0.00000000
H        0.74828000       0.00000000       0.00000000
H       -0.25113000       0.98219000       0.00000000
3
Lattice="15.0 0.0 0.0 0.0 15.0 0.0 0.0 0.0 15.0" Properties=species:S:1:pos:R:3 energy=0.0088667830 pbc="T T T"
O        0.00000000       0.00000000       0.00000000
H        0.74828000       0.00000000       0.00000000
H       -0.25711000       1.00558000       0.00000000
3
Lattice="15.0 0.0 0.0 0.0 15.0 0.0 0.0 0.0 15.0" Properties=species:S:1:pos:R:3 energy=0.0117954939 pbc="T T T"
O        0.00000000       0.00000000       0.00000000
H        0.74828000       0.00000000       0.00000000
H       -0.26309000       1.02897000       0.00000000
3
Lattice="15.0 0.0 0.0 0.0 15.0 0.0 0.0 0.0 15.0" Properties=species:S:1:pos:R:3 energy=0.0148364817 pbc="T T T"
O        0.00000000       0.00000000       0.00000000
H        0.74828000       0.00000000       0.00000000
H       -0.26907000       1.05236000       0.00000000
3
Lattice="15.0 0.0 0.0 0.0 15.0 0.0 0.0 0.0 15.0" Properties=species:S:1:pos:R:3 energy=0.0179170041 pbc="T T T"
O        0.00000000       0.00000000       0.00000000
H        0.74828000       0.00000000       0.00000000
H       -0.27505000       1.07573000       0.00000000
3
Lattice="15.0 0.0 0.0 0.0 15.0 0.0 0.0 0.0 15.0" Properties=species:S:1:pos:R:3 energy=0.0211470437 pbc="T T T"
O        0.00000000       0.00000000       0.00000000
H        0.74828000       0.00000000       0.00000000
H       -0.28103000       1.09912000       0.00000000
3
Lattice="15.0 0.0 0.0 0.0 15.0 0.0 0.0 0.0 15.0" Properties=species:S:1:pos:R:3 energy=0.0244523324 pbc="T T T"
O        0.00000000       0.00000000       0.00000000
H        0.74828000       0.00000000       0.00000000
H       -0.28701000       1.12251000       0.00000000
3
Lattice="15.0 0.0 0.0 0.0 15.0 0.0 0.0 0.0 15.0" Properties=species:S:1:pos:R:3 energy=0.0278508344 pbc="T T T"
O        0.00000000       0.00000000       0.00000000
H        0.74828000       0.00000000       0.00000000
H       -0.29299000       1.14590000       0.00000000
3
Lattice="15.0 0.0 0.0 0.0 15.0 0.0 0.0 0.0 15.0" Properties=species:S:1:pos:R:3 energy=0.0312513289 pbc="T T T"
O        0.00000000       0.00000000       0.00000000
H        0.74828000       0.00000000       0.00000000
H       -0.29897000       1.16928000       0.00000000
3
Lattice="15.0 0.0 0.0 0.0 15.0 0.0 0.0 0.0 15.0" Properties=species:S:1:pos:R:3 energy=0.0347840140 pbc="T T T"
O        0.00000000       0.00000000       0.00000000
H        0.74828000       0.00000000       0.00000000
H       -0.30495000       1.19266000       0.00000000
3
Lattice="15.0 0.0 0.0 0.0 15.0 0.0 0.0 0.0 15.0" Properties=species:S:1:pos:R:3 energy=0.0383554137 pbc="T T T"
O        0.00000000       0.00000000       0.00000000
H        0.74828000       0.00000000       0.00000000
H       -0.31093000       1.21605000       0.00000000
3
Lattice="15.0 0.0 0.0 0.0 15.0 0.0 0.0 0.0 15.0" Properties=species:S:1:pos:R:3 energy=0.0419785303 pbc="T T T"
O        0.00000000       0.00000000       0.00000000
H        0.74828000       0.00000000       0.00000000
H       -0.31691000       1.23944000       0.00000000
3
Lattice="15.0 0.0 0.0 0.0 15.0 0.0 0.0 0.0 15.0" Properties=species:S:1:pos:R:3 energy=0.0455699338 pbc="T T T"
O        0.00000000       0.00000000       0.00000000
H        0.74828000       0.00000000       0.00000000
H       -0.32289000       1.26282000       0.00000000
3
Lattice="15.0 0.0 0.0 0.0 15.0 0.0 0.0 0.0 15.0" Properties=species:S:1:pos:R:3 energy=0.0492561252 pbc="T T T"
O        0.00000000       0.00000000       0.00000000
H        0.74828000       0.00000000       0.00000000
H       -0.32887000       1.28621000       0.00000000
3
Lattice="15.0 0.0 0.0 0.0 15.0 0.0 0.0 0.0 15.0" Properties=species:S:1:pos:R:3 energy=0.0529039238 pbc="T T T"
O        0.00000000       0.00000000       0.00000000
H        0.74828000       0.00000000       0.00000000
H       -0.33484000       1.30959000       0.00000000
3
Lattice="15.0 0.0 0.0 0.0 15.0 0.0 0.0 0.0 15.0" Properties=species:S:1:pos:R:3 energy=0.0565498597 pbc="T T T"
O        0.00000000       0.00000000       0.00000000
H        0.74828000       0.00000000       0.00000000
H       -0.34082000       1.33298000       0.00000000
3
Lattice="15.0 0.0 0.0 0.0 15.0 0.0 0.0 0.0 15.0" Properties=species:S:1:pos:R:3 energy=0.0602535383 pbc="T T T"
O        0.00000000       0.00000000       0.00000000
H        0.74828000       0.00000000       0.00000000
H       -0.34680000       1.35637000       0.00000000
3
Lattice="15.0 0.0 0.0 0.0 15.0 0.0 0.0 0.0 15.0" Properties=species:S:1:pos:R:3 energy=-0.0245671929 pbc="T T T"
O        0.00000000       0.00000000       0.00000000
H        0.77241000       0.00000000       0.00000000
H       -0.17340000       0.67818000       0.00000000
3
Lattice="15.0 0.0 0.0 0.0 15.0 0.0 0.0 0.0 15.0" Properties=species:S:1:pos:R:3 energy=-0.0233478973 pbc="T T T"
O        0.00000000       0.00000000       0.00000000
H        0.77241000       0.00000000       0.00000000
H       -0.17938000       0.70157000       0.00000000
3
Lattice="15.0 0.0 0.0 0.0 15.0 0.0 0.0 0.0 15.0" Properties=species:S:1:pos:R:3 energy=-0.0192610594 pbc="T T T"
O        0.00000000       0.00000000       0.00000000
H        0.77241000       0.00000000       0.00000000
H       -0.18536000       0.72496000       0.00000000
3
Lattice="15.0 0.0 0.0 0.0 15.0 0.0 0.0 0.0 15.0" Properties=species:S:1:pos:R:3 energy=-0.0161203540 pbc="T T T"
O        0.00000000       0.00000000       0.00000000
H        0.77241000       0.00000000       0.00000000
H       -0.19134000       0.74834000       0.00000000
3
Lattice="15.0 0.0 0.0 0.0 15.0 0.0 0.0 0.0 15.0" Properties=species:S:1:pos:R:3 energy=-0.0141812690 pbc="T T T"
O        0.00000000       0.00000000       0.00000000
H        0.77241000       0.00000000       0.00000000
H       -0.19732000       0.77172000       0.00000000
3
Lattice="15.0 0.0 0.0 0.0 15.0 0.0 0.0 0.0 15.0" Properties=species:S:1:pos:R:3 energy=-0.0120848193 pbc="T T T"
O        0.00000000       0.00000000       0.00000000
H        0.77241000       0.00000000       0.00000000
H       -0.20330000       0.79511000       0.00000000
3
Lattice="15.0 0.0 0.0 0.0 15.0 0.0 0.0 0.0 15.0" Properties=species:S:1:pos:R:3 energy=-0.0098585760 pbc="T T T"
O        0.00000000       0.00000000       0.00000000
H        0.77241000       0.00000000       0.00000000
H       -0.20928000       0.81850000       0.00000000
3
Lattice="15.0 0.0 0.0 0.0 15.0 0.0 0.0 0.0 15.0" Properties=species:S:1:pos:R:3 energy=-0.0075923091 pbc="T T T"
O        0.00000000       0.00000000       0.00000000
H        0.77241000       0.00000000       0.00000000
H       -0.21526000       0.84189000       0.00000000
3
Lattice="15.0 0.0 0.0 0.0 15.0 0.0 0.0 0.0 15.0" Properties=species:S:1:pos:R:3 energy=-0.0054390109 pbc="T T T"
O        0.00000000       0.00000000       0.00000000
H        0.77241000       0.00000000       0.00000000
H       -0.22124000       0.86526000       0.00000000
3
Lattice="15.0 0.0 0.0 0.0 15.0 0.0 0.0 0.0 15.0" Properties=species:S:1:pos:R:3 energy=-0.0032434712 pbc="T T T"
O        0.00000000       0.00000000       0.00000000
H        0.77241000       0.00000000       0.00000000
H       -0.22722000       0.88865000       0.00000000
3
Lattice="15.0 0.0 0.0 0.0 15.0 0.0 0.0 0.0 15.0" Properties=species:S:1:pos:R:3 energy=-0.0010143602 pbc="T T T"
O        0.00000000       0.00000000       0.00000000
H        0.77241000       0.00000000       0.00000000
H       -0.23319000       0.91204000       0.00000000
3
Lattice="15.0 0.0 0.0 0.0 15.0 0.0 0.0 0.0 15.0" Properties=species:S:1:pos:R:3 energy=0.0012630159 pbc="T T T"
O        0.00000000       0.00000000       0.00000000
H        0.77241000       0.00000000       0.00000000
H       -0.23917000       0.93543000       0.00000000
3
Lattice="15.0 0.0 0.0 0.0 15.0 0.0 0.0 0.0 15.0" Properties=species:S:1:pos:R:3 energy=0.0036213422 pbc="T T T"
O        0.00000000       0.00000000       0.00000000
H        0.77241000       0.00000000       0.00000000
H       -0.24515000       0.95881000       0.00000000
3
Lattice="15.0 0.0 0.0 0.0 15.0 0.0 0.0 0.0 15.0" Properties=species:S:1:pos:R:3 energy=0.0060404199 pbc="T T T"
O        0.00000000       0.00000000       0.00000000
H        0.77241000       0.00000000       0.00000000
H       -0.25113000       0.98219000       0.00000000
3
Lattice="15.0 0.0 0.0 0.0 15.0 0.0 0.0 0.0 15.0" Properties=species:S:1:pos:R:3 energy=0.0085508748 pbc="T T T"
O        0.00000000       0.00000000       0.00000000
H        0.77241000       0.00000000       0.00000000
H       -0.25711000       1.00558000       0.00000000
3
Lattice="15.0 0.0 0.0 0.0 15.0 0.0 0.0 0.0 15.0" Properties=species:S:1:pos:R:3 energy=0.0111408012 pbc="T T T"
O        0.00000000       0.00000000       0.00000000
H        0.77241000       0.00000000       0.00000000
H       -0.26309000       1.02897000       0.00000000
3
Lattice="15.0 0.0 0.0 0.0 15.0 0.0 0.0 0.0 15.0" Properties=species:S:1:pos:R:3 energy=0.0138290478 pbc="T T T"
O        0.00000000       0.00000000       0.00000000
H        0.77241000       0.00000000       0.00000000
H       -0.26907000       1.05236000       0.00000000
3
Lattice="15.0 0.0 0.0 0.0 15.0 0.0 0.0 0.0 15.0" Properties=species:S:1:pos:R:3 energy=0.0165431988 pbc="T T T"
O        0.00000000       0.00000000       0.00000000
H        0.77241000       0.00000000       0.00000000
H       -0.27505000       1.07573000       0.00000000
3
Lattice="15.0 0.0 0.0 0.0 15.0 0.0 0.0 0.0 15.0" Properties=species:S:1:pos:R:3 energy=0.0193929376 pbc="T T T"