 3
 energy=1.4263360618745367 cutoff=5.00000000 nneightol=1.20000000 pbc="T T T" Lattice="15.00000000       0.00000000       0.00000000       0.00000000      15.00000000       0.00000000       0.00000000       0.00000000      15.00000000" Properties=species:S:1:pos:R:3:Z:I:1:map_shift:I:3:n_neighb:I:1
 O               0.00000000      0.00000000      0.00000000       8       0       0       0       2
 H               0.95883000      0.00000000      0.00000000       1       0       0       0       2
 H               0.35000000      0.60622000      0.00000000       1       0       0       0       2
 3
 energy=.58113302750899720 cutoff=5.00000000 nneightol=1.20000000 pbc="T T T" Lattice="15.00000000       0.00000000       0.00000000       0.00000000      15.00000000       0.00000000       0.00000000       0.00000000      15.00000000" Properties=species:S:1:pos:R:3:Z:I:1:map_shift:I:3:n_neighb:I:1
 O               0.00000000      0.00000000      0.00000000       8       0       0       0       2
 H               0.95883000      0.00000000      0.00000000       1       0       0       0       2
 H               0.36842000      0.63812000      0.00000000       1       0       0       0       2
 3
 energy=-.19966977254918561 cutoff=5.00000000 nneightol=1.20000000 pbc="T T T" Lattice="15.00000000       0.00000000       0.00000000       0.00000000      15.00000000       0.00000000       0.00000000       0.00000000      15.00000000" Properties=species:S:1:pos:R:3:Z:I:1:map_shift:I:3:n_neighb:I:1
 O               0.00000000      0.00000000      0.00000000       8       0       0       0       2
 H               0.95883000      0.00000000      0.00000000       1       0       0       0       2
 H               0.38684000      0.67003000      0.00000000       1       0       0       0       2
 3
 energy=-.86431382931942835 cutoff=5.00000000 nneightol=1.20000000 pbc="T T T" Lattice="15.00000000       0.00000000       0.00000000       0.00000000      15.00000000       0.00000000       0.00000000       0.00000000      15.00000000" Properties=species:S:1:pos:R:3:Z:I:1:map_shift:I:3:n_neighb:I:1
 O               0.00000000      0.00000000      0.00000000       8       0       0       0       2
 H               0.95883000      0.00000000      0.00000000       1       0       0       0       2
 H               0.40527000      0.70194000      0.00000000       1       0       0       0       2
 3
 energy=-1.3775514480203128 cutoff=5.00000000 nneightol=1.20000000 pbc="T T T" Lattice="15.00000000       0.00000000       0.00000000       0.00000000      15.00000000       0.00000000       0.00000000       0.00000000      15.00000000" Properties=species:S:1:pos:R:3:Z:I:1:map_shift:I:3:n_neighb:I:1
 O               0.00000000      0.00000000      0.00000000       8       0       0       0       2
 H               0.95883000      0.00000000      0.00000000       1       0       0       0       2
 H               0.42369000      0.73384000      0.00000000       1       0       0       0       2
 3
 energy=-1.7303116475335401 cutoff=5.00000000 nneightol=1.20000000 pbc="T T T" Lattice="15.00000000       0.00000000       0.00000000       0.00000000      15.00000000       0.00000000       0.00000000       0.00000000      15.00000000" Properties=species:S:1:pos:R:3:Z:I:1:map_shift:I:3:n_neighb:I:1
 O               0.00000000      0.00000000      0.00000000       8       0       0       0       2
 H               0.95883000      0.00000000      0.00000000       1       0       0       0       2
 H               0.44211000      0.76575000      0.00000000       1       0       0       0       2
 3
 energy=-1.9391907881152122 cutoff=5.00000000 nneightol=1.20000000 pbc="T T T" Lattice="15.00000000       0.00000000       0.00000000       0.00000000      15.00000000       0.00000000       0.00000000       0.00000000      15.00000000" Properties=species:S:1:pos:R:3:Z:I:1:map_shift:I:3:n_neighb:I:1
 O               0.00000000      0.00000000      0.00000000       8       0       0       0       2
 H               0.95883000      0.00000000      0.00000000       1       0       0       0       2
 H               0.46053000      0.79765000      0.00000000       1       0       0       0       2
 3
 energy=-2.0393884108197540 cutoff=5.00000000 nneightol=1.20000000 pbc="T T T" Lattice="15.00000000       0.00000000       0.00000000       0.00000000      15.00000000       0.00000000       0.00000000       0.00000000      15.00000000" Properties=species:S:1:pos:R:3:Z:I:1:map_shift:I:3:n_neighb:I:1
 O               0.00000000      0.00000000      0.00000000       8       0       0       0       2
 H               0.95883000      0.00000000      0.00000000       1       0       0       0       2
 H               0.47895000      0.82956000      0.00000000       1       0       0       0       2
 3
 energy=-2.0728276978964573 cutoff=5.00000000 nneightol=1.20000000 pbc="T T T" Lattice="15.00000000       0.00000000       0.00000000       0.00000000      15.00000000       0.00000000       0.00000000       0.00000000      15.00000000" Properties=species:S:1:pos:R:3:Z:I:1:map_shift:I:3:n_neighb:I:1
 O               0.00000000      0.00000000      0.00000000       8       0       0       0       2
 H               0.95883000      0.00000000      0.00000000       1       0       0       0       2
 H               0.49737000      0.86147000      0.00000000       1       0       0       0       2
 3
 energy=-2.0779006193032785 cutoff=5.00000000 nneightol=1.20000000 pbc="T T T" Lattice="15.00000000       0.00000000       0.00000000       0.00000000      15.00000000       0.00000000       0.00000000       0.00000000      15.00000000" Properties=species:S:1:pos:R:3:Z:I:1:map_shift:I:3:n_neighb:I:1
 O               0.00000000      0.00000000      0.00000000       8       0       0       0       2
 H               0.95883000      0.00000000      0.00000000       1       0       0       0       2
 H               0.51579000      0.89337000      0.00000000       1       0       0       0       2
 3
 energy=-2.0838795267533214 cutoff=5.00000000 nneightol=1.20000000 pbc="T T T" Lattice="15.00000000       0.00000000       0.00000000       0.00000000      15.00000000       0.00000000       0.00000000       0.00000000      15.00000000" Properties=species:S:1:pos:R:3:Z:I:1:map_shift:I:3:n_neighb:I:1
 O               0.00000000      0.00000000      0.00000000       8       0       0       0       2
 H               0.95883000      0.00000000      0.00000000       1       0       0       0       2
 H               0.53421000      0.92528000      0.00000000       1       0       0       0       2
 3
 energy=-2.1115914720906233 cutoff=5.00000000 nneightol=1.20000000 pbc="T T T" Lattice="15.00000000       0.00000000       0.00000000       0.00000000      15.00000000       0.00000000       0.00000000       0.00000000      15.00000000" Properties=species:S:1:pos:R:3:Z:I:1:map_shift:I:3:n_neighb:I:1
 O               0.00000000      0.00000000      0.00000000       8       0       0       0       2
 H               0.95883000      0.00000000      0.00000000       1       0       0       0       2
 H               0.55263000      0.95718000      0.00000000       1       0       0       0       2
 3
 energy=-2.1772314023740478 cutoff=5.00000000 nneightol=1.20000000 pbc="T T T" Lattice="15.00000000       0.00000000       0.00000000       0.00000000      15.00000000       0.00000000       0.00000000       0.00000000      15.00000000" Properties=species:S:1:pos:R:3:Z:I:1:map_shift:I:3:n_neighb:I:1
 O               0.00000000      0.00000000      0.00000000       8       0       0       0       2
 H               0.95883000      0.00000000      0.00000000       1       0       0       0       2
 H               0.57106000      0.98910000      0.00000000       1       0       0       0       2
 3
 energy=-2.2975548884001284 cutoff=5.00000000 nneightol=1.20000000 pbc="T T T" Lattice="15.00000000       0.00000000       0.00000000       0.00000000      15.00000000       0.00000000       0.00000000       0.00000000      15.00000000" Properties=species:S:1:pos:R:3:Z:I:1:map_shift:I:3:n_neighb:I:1
 O               0.00000000      0.00000000      0.00000000       8       0       0       0       2
 H               0.95883000      0.00000000      0.00000000       1       0       0       0       2
 H               0.58948000      1.02100000      0.00000000       1       0       0       0       2
 3
 energy=-2.4934293664314282 cutoff=5.00000000 nneightol=1.20000000 pbc="T T T" Lattice="15.00000000       0.00000000       0.00000000       0.00000000      15.00000000       0.00000000       0.00000000       0.00000000      15.00000000" Properties=species:S:1:pos:R:3:Z:I:1:map_shift:I:3:n_neighb:I:1
 O               0.00000000      0.00000000      0.00000000       8       0       0       0       2
 H               0.95883000      0.00000000      0.00000000       1       0       0       0       2
 H               0.60790000      1.05291000      0.00000000       1       0       0       0       2
 3
 energy=-2.7899496127743078 cutoff=5.00000000 nneightol=1.20000000 pbc="T T T" Lattice="15.00000000       0.00000000       0.00000000       0.00000000      15.00000000       0.00000000       0.00000000       0.00000000      15.00000000" Properties=species:S:1:pos:R:3:Z:I:1:map_shift:I:3:n_neighb:I:1
 O               0.00000000      0.00000000      0.00000000       8       0       0       0       2
 H               0.95883000      0.00000000      0.00000000       1       0       0       0       2
 H               0.62632000      1.08481000      0.00000000       1       0       0       0       2
 3
 energy=-3.2125927641417036 cutoff=5.00000000 nneightol=1.20000000 pbc="T T T" Lattice="15.00000000       0.00000000       0.00000000       0.00000000      15.00000000       0.00000000       0.00000000       0.00000000      15.00000000" Properties=species:S:1:pos:R:3:Z:I:1:map_shift:I:3:n_neighb:I:1
 O               0.00000000      0.00000000      0.00000000       8       0       0       0       2
 H               0.95883000      0.00000000      0.00000000       1       0       0       0       2
 H               0.64474000      1.11671000      0.00000000       1       0       0       0       2
 3
 energy=-3.7805579946229386 cutoff=5.00000000 nneightol=1.20000000 pbc="T T T" Lattice="15.00000000       0.00000000       0.00000000       0.00000000      15.00000000       0.00000000       0.00000000       0.00000000      15.00000000" Properties=species:S:1:pos:R:3:Z:I:1:map_shift:I:3:n_neighb:I:1
 O               0.00000000      0.00000000      0.00000000       8       0       0       0       2
 H               0.95883000      0.00000000      0.00000000       1       0       0       0       2
 H               0.66316000      1.14863000      0.00000000       1       0       0       0       2
 3
 energy=-4.4979942332180372 cutoff=5.00000000 nneightol=1.20000000 pbc="T T T" Lattice="15.00000000       0.00000000       0.00000000       0.00000000      15.00000000       0.00000000       0.00000000       0.00000000      15.00000000" Properties=species:S:1:pos:R:3:Z:I:1:map_shift:I:3:n_neighb:I:1
 O               0.00000000      0.00000000      0.00000000       8       0       0       0       2
 H               0.95883000      0.00000000      0.00000000       1       0       0       0       2
 H               0.68158000      1.18053000      0.00000000       1       0       0       0       2
 3
 energy=-5.3487141978629893 cutoff=5.00000000 nneightol=1.20000000 pbc="T T T" Lattice="15.00000000       0.00000000       0.00000000       0.00000000      15.00000000       0.00000000       0.00000000       0.00000000      15.00000000" Properties=species:S:1:pos:R:3:Z:I:1:map_shift:I:3:n_neighb:I:1
 O               0.00000000      0.00000000      0.00000000       8       0       0       0       2
 H               0.95883000      0.00000000      0.00000000       1       0       0       0       2
 H               0.70000000      1.21244000      0.00000000       1       0       0       0       2
 3
 energy=1.5030523668333160 cutoff=5.00000000 nneightol=1.20000000 pbc="T T T" Lattice="15.00000000       0.00000000       0.00000000       0.00000000      15.00000000       0.00000000       0.00000000       0.00000000      15.00000000" Properties=species:S:1:pos:R:3:Z:I:1:map_shift:I:3:n_neighb:I:1
 O               0.00000000      0.00000000      0.00000000       8       0       0       0       2
 H               0.95883000      0.00000000      0.00000000       1       0       0       0       2
 H               0.31667000      0.62428000      0.00000000       1       0       0       0       2
 3
 energy=.68236224986875982 cutoff=5.00000000 nneightol=1.20000000 pbc="T T T" Lattice="15.00000000       0.00000000       0.00000000       0.00000000      15.00000000       0.00000000       0.00000000       0.00000000      15.00000000" Properties=species:S:1:pos:R:3:Z:I:1:map_shift:I:3:n_neighb:I:1
 O               0.00000000      0.00000000      0.00000000       8       0       0       0       2
 H               0.95883000      0.00000000      0.00000000       1       0       0       0       2
 H               0.33333000      0.65713000      0.00000000       1       0       0       0       2
 3
 energy=-.58934677054537588E-001 cutoff=5.00000000 nneightol=1.20000000 pbc="T T T" Lattice="15.00000000       0.00000000       0.00000000       0.00000000      15.00000000       0.00000000       0.00000000       0.00000000      15.00000000" Properties=species:S:1:pos:R:3:Z:I:1:map_shift:I:3:n_neighb:I:1
 O               0.00000000      0.00000000      0.00000000       8       0       0       0       2
 H               0.95883000      0.00000000      0.00000000       1       0       0       0       2
 H               0.35000000      0.68999000      0.00000000       1       0       0       0       2
 3
 energy=-.66889322241857485 cutoff=5.00000000 nneightol=1.20000000 pbc="T T T" Lattice="15.00000000       0.00000000       0.00000000       0.00000000      15.00000000       0.00000000       0.00000000       0.00000000      15.00000000" Properties=species:S:1:pos:R:3:Z:I:1:map_shift:I:3:n_neighb:I:1
 O               0.00000000      0.00000000      0.00000000       8       0       0       0       2
 H               0.95883000      0.00000000      0.00000000       1       0       0       0       2
 H               0.36667000      0.72285000      0.00000000       1       0       0       0       2
 3
 energy=-1.1164350432176491 cutoff=5.00000000 nneightol=1.20000000 pbc="T T T" Lattice="15.00000000       0.00000000       0.00000000       0.00000000      15.00000000       0.00000000       0.00000000       0.00000000      15.00000000" Properties=species:S:1:pos:R:3:Z:I:1:map_shift:I:3:n_neighb:I:1
 O               0.00000000      0.00000000      0.00000000       8       0       0       0       2
 H               0.95883000      0.00000000      0.00000000       1       0       0       0       2
 H               0.38333000      0.75571000      0.00000000       1       0       0       0       2
 3
 energy=-1.3992124919345201 cutoff=5.00000000 nneightol=1.20000000 pbc="T T T" Lattice="15.00000000       0.00000000       0.00000000       0.00000000      15.00000000       0.00000000       0.00000000       0.00000000      15.00000000" Properties=species:S:1:pos:R:3:Z:I:1:map_shift:I:3:n_neighb:I:1
 O               0.00000000      0.00000000      0.00000000       8       0       0       0       2
 H               0.95883000      0.00000000      0.00000000       1       0       0       0       2
 H               0.40000000      0.78856000      0.00000000       1       0       0       0       2
 3
 energy=-1.5412177247612533 cutoff=5.00000000 nneightol=1.20000000 pbc="T T T" Lattice="15.00000000       0.00000000       0.00000000       0.00000000      15.00000000       0.00000000       0.00000000       0.00000000      15.00000000" Properties=species:S:1:pos:R:3:Z:I:1:map_shift:I:3:n_neighb:I:1
 O               0.00000000      0.00000000      0.00000000       8       0       0       0       2
 H               0.95883000      0.00000000      0.00000000       1       0       0       0       2
 H               0.41667000      0.82142000      0.00000000       1       0       0       0       2
 3
 energy=-1.5826232435749148 cutoff=5.00000000 nneightol=1.20000000 pbc="T T T" Lattice="15.00000000       0.00000000       0.00000000       0.00000000      15.00000000       0.00000000       0.00000000       0.00000000      15.00000000" Properties=species:S:1:pos:R:3:Z:I:1:map_shift:I:3:n_neighb:I:1
 O               0.00000000      0.00000000      0.00000000       8       0       0       0       2
 H               0.95883000      0.00000000      0.00000000       1       0       0       0       2
 H               0.43333000      0.85427000      0.00000000       1       0       0       0       2
 3
 energy=-1.5668929538679777 cutoff=5.00000000 nneightol=1.20000000 pbc="T T T" Lattice="15.00000000       0.00000000       0.00000000       0.00000000      15.00000000       0.00000000       0.00000000       0.00000000      15.00000000" Properties=species:S:1:pos:R:3:Z:I:1:map_shift:I:3:n_neighb:I:1
 O               0.00000000      0.00000000      0.00000000       8       0       0       0       2
 H               0.95883000      0.00000000      0.00000000       1       0       0       0       2
 H               0.45000000      0.88713000      0.00000000       1       0       0       0       2
 3
 energy=-1.5304441698453388 cutoff=5.00000000 nneightol=1.20000000 pbc="T T T" Lattice="15.00000000       0.00000000       0.00000000       0.00000000      15.00000000       0.00000000       0.00000000       0.00000000      15.00000000" Properties=species:S:1:pos:R:3:Z:I:1:map_shift:I:3:n_neighb:I:1
 O               0.00000000      0.00000000      0.00000000       8       0       0       0       2
 H               0.95883000      0.00000000      0.00000000       1       0       0       0       2
 H               0.46667000      0.91999000      0.00000000       1       0       0       0       2
 3
 energy=-1.4992209269009606 cutoff=5.00000000 nneightol=1.20000000 pbc="T T T" Lattice="15.00000000       0.00000000       0.00000000       0.00000000      15.00000000       0.00000000       0.00000000       0.00000000      15.00000000" Properties=species:S:1:pos:R:3:Z:I:1:map_shift:I:3:n_neighb:I:1
 O               0.00000000      0.00000000      0.00000000       8       0       0       0       2
 H               0.95883000      0.00000000      0.00000000       1       0       0       0       2
 H               0.48333000      0.95284000      0.00000000       1       0       0       0       2
 3
 energy=-1.4911475054948653 cutoff=5.00000000 nneightol=1.20000000 pbc="T T T" Lattice="15.00000000       0.00000000       0.00000000       0.00000000      15.00000000       0.00000000       0.00000000       0.00000000      15.00000000" Properties=species:S:1:pos:R:3:Z:I:1:map_shift:I:3:n_neighb:I:1
 O               0.00000000      0.00000000      0.00000000       8       0       0       0       2
 H               0.95883000      0.00000000      0.00000000       1       0       0       0       2
 H               0.50000000      0.98570000      0.00000000       1       0       0       0       2
 3
 energy=-1.5216554589017051 cutoff=5.00000000 nneightol=1.20000000 pbc="T T T" Lattice="15.00000000       0.00000000       0.00000000       0.00000000      15.00000000       0.00000000       0.00000000       0.00000000      15.00000000" Properties=species:S:1:pos:R:3:Z:I:1:map_shift:I:3:n_neighb:I:1
 O               0.00000000      0.00000000      0.00000000       8       0       0       0       2
 H               0.95883000      0.00000000      0.00000000       1       0       0       0       2
 H               0.51667000      1.01856000      0.00000000       1       0       0       0       2
 3
 energy=-1.6094054958418269 cutoff=5.00000000 nneightol=1.20000000 pbc="T T T" Lattice="15.00000000       0.00000000       0.00000000       0.00000000      15.00000000       0.00000000       0.00000000       0.00000000      15.00000000" Properties=species:S:1:pos:R:3:Z:I:1:map_shift:I:3:n_neighb:I:1
 O               0.00000000      0.00000000      0.00000000       8       0       0       0       2
 H               0.95883000      0.00000000      0.00000000       1       0       0       0       2
 H               0.53333000      1.05142000      0.00000000       1       0       0       0       2
 3
 energy=-1.7797342631192237 cutoff=5.00000000 nneightol=1.20000000 pbc="T T T" Lattice="15.00000000       0.00000000       0.00000000       0.00000000      15.00000000       0.00000000       0.00000000       0.00000000      15.00000000" Properties=species:S:1:pos:R:3:Z:I:1:map_shift:I:3:n_neighb:I:1
 O               0.00000000      0.00000000      0.00000000       8       0       0       0       2
 H               0.95883000      0.00000000      0.00000000       1       0       0       0       2
 H               0.55000000      1.08427000      0.00000000       1       0       0       0       2
 3
 energy=-2.0629176346637053 cutoff=5.00000000 nneightol=1.20000000 pbc="T T T" Lattice="15.00000000       0.00000000       0.00000000       0.00000000      15.00000000       0.00000000       0.00000000       0.00000000      15.00000000" Properties=species:S:1:pos:R:3:Z:I:1:map_shift:I:3:n_neighb:I:1
 O               0.00000000      0.00000000      0.00000000       8       0       0       0       2
 H               0.95883000      0.00000000      0.00000000       1       0       0       0       2
 H               0.56667000      1.11713000      0.00000000       1       0       0       0       2
 3
 energy=-2.4885569089980208 cutoff=5.00000000 nneightol=1.20000000 pbc="T T T" Lattice="15.00000000       0.00000000       0.00000000       0.00000000      15.00000000       0.00000000       0.00000000       0.00000000      15.00000000" Properties=species:S:1:pos:R:3:Z:I:1:map_shift:I:3:n_neighb:I:1
 O               0.00000000      0.00000000      0.00000000       8       0       0       0       2
 H               0.95883000      0.00000000      0.00000000       1       0       0       0       2
 H               0.58333000      1.14998000      0.00000000       1       0       0       0       2
 3
 energy=-3.0771909229870857 cutoff=5.00000000 nneightol=1.20000000 pbc="T T T" Lattice="15.00000000       0.00000000       0.00000000       0.00000000      15.00000000       0.00000000       0.00000000       0.00000000      15.00000000" Properties=species:S:1:pos:R:3:Z:I:1:map_shift:I:3:n_neighb:I:1
 O               0.00000000      0.00000000      0.00000000       8       0       0       0       2
 H               0.95883000      0.00000000      0.00000000       1       0       0       0       2
 H               0.60000000      1.18285000      0.00000000       1       0       0       0       2
 3
 energy=-3.8287398339727474 cutoff=5.00000000 nneightol=1.20000000 pbc="T T T" Lattice="15.00000000       0.00000000       0.00000000       0.00000000      15.00000000       0.00000000       0.00000000       0.00000000      15.00000000" Properties=species:S:1:pos:R:3:Z:I:1:map_shift:I:3:n_neighb:I:1
 O               0.00000000      0.00000000      0.00000000       8       0       0       0       2
 H               0.95883000      0.00000000      0.00000000       1       0       0       0       2
 H               0.61667000      1.21570000      0.00000000       1       0       0       0       2
 3
 energy=-4.7175810989745628 cutoff=5.00000000 nneightol=1.20000000 pbc="T T T" Lattice="15.00000000       0.00000000       0.00000000       0.00000000      15.00000000       0.00000000       0.00000000       0.00000000      15.00000000" Properties=species:S:1:pos:R:3:Z:I:1:map_shift:I:3:n_neighb:I:1
 O               0.00000000      0.00000000      0.00000000       8       0       0       0       2
 H               0.95883000      0.00000000      0.00000000       1       0       0       0       2
 H               0.63333000      1.24855000      0.00000000       1       0       0       0       2
 3
 energy=1.5609676191782285 cutoff=5.00000000 nneightol=1.20000000 pbc="T T T" Lattice="15.00000000       0.00000000       0.00000000       0.00000000      15.00000000       0.00000000       0.00000000       0.00000000      15.00000000" Properties=species:S:1:pos:R:3:Z:I:1:map_shift:I:3:n_neighb:I:1
 O               0.00000000      0.00000000      0.00000000       8       0       0       0       2
 H               0.95883000      0.00000000      0.00000000       1       0       0       0       2
 H               0.28240000      0.64051000      0.00000000       1       0       0       0       2
 3
 energy=.77050165222252076 cutoff=5.00000000 nneightol=1.20000000 pbc="T T T" Lattice="15.00000000       0.00000000       0.00000000       0.00000000      15.00000000       0.00000000       0.00000000       0.00000000      15.00000000" Properties=species:S:1:pos:R:3:Z:I:1:map_shift:I:3:n_neighb:I:1
 O               0.00000000      0.00000000      0.00000000       8       0       0       0       2
 H               0.95883000      0.00000000      0.00000000       1       0       0       0       2
 H               0.29727000      0.67421000      0.00000000       1       0       0       0       2
 3
 energy=.72863135659446243E-001 cutoff=5.00000000 nneightol=1.20000000 pbc="T T T" Lattice="15.00000000       0.00000000       0.00000000       0.00000000      15.00000000       0.00000000       0.00000000       0.00000000      15.00000000" Properties=species:S:1:pos:R:3:Z:I:1:map_shift:I:3:n_neighb:I:1
 O               0.00000000      0.00000000      0.00000000       8       0       0       0       2
 H               0.95883000      0.00000000      0.00000000       1       0       0       0       2
 H               0.31213000      0.70792000      0.00000000       1       0       0       0       2
 3
 energy=-.48258367194767970 cutoff=5.00000000 nneightol=1.20000000 pbc="T T T" Lattice="15.00000000       0.00000000       0.00000000       0.00000000      15.00000000       0.00000000       0.00000000       0.00000000      15.00000000" Properties=species:S:1:pos:R:3:Z:I:1:map_shift:I:3:n_neighb:I:1
 O               0.00000000      0.00000000      0.00000000       8       0       0       0       2
 H               0.95883000      0.00000000      0.00000000       1       0       0       0       2
 H               0.32700000      0.74164000      0.00000000       1       0       0       0       2
 3
 energy=-.86979288199771077 cutoff=5.00000000 nneightol=1.20000000 pbc="T T T" Lattice="15.00000000       0.00000000       0.00000000       0.00000000      15.00000000       0.00000000       0.00000000       0.00000000      15.00000000" Properties=species:S:1:pos:R:3:Z:I:1:map_shift:I:3:n_neighb:I:1
 O               0.00000000      0.00000000      0.00000000       8       0       0       0       2
 H               0.95883000      0.00000000      0.00000000       1       0       0       0       2
 H               0.34186000      0.77535000      0.00000000       1       0       0       0       2
 3
 energy=-1.0934175768842067 cutoff=5.00000000 nneightol=1.20000000 pbc="T T T" Lattice="15.00000000       0.00000000       0.00000000       0.00000000      15.00000000       0.00000000       0.00000000       0.00000000      15.00000000" Properties=species:S:1:pos:R:3:Z:I:1:map_shift:I:3:n_neighb:I:1
 O               0.00000000      0.00000000      0.00000000       8       0       0       0       2
 H               0.95883000      0.00000000      0.00000000       1       0       0       0       2
 H               0.35672000      0.80906000      0.00000000       1       0       0       0       2
 3
 energy=-1.1833948997742993 cutoff=5.00000000 nneightol=1.20000000 pbc="T T T" Lattice="15.00000000       0.00000000       0.00000000       0.00000000      15.00000000       0.00000000       0.00000000       0.00000000      15.00000000" Properties=species:S:1:pos:R:3:Z:I:1:map_shift:I:3:n_neighb:I:1
 O               0.00000000      0.00000000      0.00000000       8       0       0       0       2
 H               0.95883000      0.00000000      0.00000000       1       0       0       0       2
 H               0.37158000      0.84277000      0.00000000       1       0       0       0       2
 3
 energy=-1.1828814079981953 cutoff=5.00000000 nneightol=1.20000000 pbc="T T T" Lattice="15.00000000       0.00000000       0.00000000       0.00000000      15.00000000       0.00000000       0.00000000       0.00000000      15.00000000" Properties=species:S:1:pos:R:3:Z:I:1:map_shift:I:3:n_neighb:I:1
 O               0.00000000      0.00000000      0.00000000       8       0       0       0       2
 H               0.95883000      0.00000000      0.00000000       1       0       0       0       2
 H               0.38645000      0.87648000      0.00000000       1       0       0       0       2
 3
 energy=-1.1343577490329437 cutoff=5.00000000 nneightol=1.20000000 pbc="T T T" Lattice="15.00000000       0.00000000       0.00000000       0.00000000      15.00000000       0.00000000       0.00000000       0.00000000      15.00000000" Properties=species:S:1:pos:R:3:Z:I:1:map_shift:I:3:n_neighb:I:1
 O               0.00000000      0.00000000      0.00000000       8       0       0       0       2
 H               0.95883000      0.00000000      0.00000000       1       0       0       0       2
 H               0.40131000      0.91020000      0.00000000       1       0       0       0       2
 3
 energy=-1.0714950253093605 cutoff=5.00000000 nneightol=1.20000000 pbc="T T T" Lattice="15.00000000       0.00000000       0.00000000       0.00000000      15.00000000       0.00000000       0.00000000       0.00000000      15.00000000" Properties=species:S:1:pos:R:3:Z:I:1:map_shift:I:3:n_neighb:I:1