3
Lattice="15.0 0.0 0.0 0.0 15.0 0.0 0.0 0.0 15.0" Properties=species:S:1:pos:R:3 energy=0.129/ 0.29/ -0.247 pbc="T T T"
O       -0.00044427      -0.01498691       0.00000000
H        0.97609283       0.03929497       0.00000000
H       -0.24772701       1.12750567       0.00000000
