3
Lattice="15.0 0.0 0.0 0.0 15.0 0.0 0.0 0.0 15.0" Properties=species:S:1:pos:R:3 energy=0.285/ -0.146/ -0.296 pbc="T T T"
O        0.00437730      -0.01161493       0.00000000
H        0.80031004       0.10574837       0.00000000
H       -0.14846437       1.00753529       0.00000000
