3
Lattice="15.0 0.0 0.0 0.0 15.0 0.0 0.0 0.0 15.0" Properties=species:S:1:pos:R:3 energy=0.391/ 0.006/ 0.246 pbc="T T T"
O       -0.01566610      -0.00583415       0.00000000
H        1.05085465       0.13999416       0.00000000
H       -0.08090501       0.88154513       0.00000000
