3
Lattice="15.0 0.0 0.0 0.0 15.0 0.0 0.0 0.0 15.0" Properties=species:S:1:pos:R:3 energy=0.355/ -0.171/ 0.225 pbc="T T T"
O       -0.01146411      -0.00167864       0.00000000
H        0.97849540       0.13130354       0.00000000
H       -0.07523470       0.82428444       0.00000000
