3
Lattice="15.0 0.0 0.0 0.0 15.0 0.0 0.0 0.0 15.0" Properties=species:S:1:pos:R:3 energy=0.152/ 0.09/ 0.201 pbc="T T T"
O       -0.01045974      -0.00174027       0.00000000
H        1.06452303       0.05231749       0.00000000
H       -0.17720436       0.90424945       0.00000000
