3
Lattice="15.0 0.0 0.0 0.0 15.0 0.0 0.0 0.0 15.0" Properties=species:S:1:pos:R:3 energy=-0.093/ 0.274/ 0.177 pbc="T T T"
O       -0.00726941       0.00092306       0.00000000
H        1.12188043      -0.03993160       0.00000000
H       -0.28519702       0.95423025       0.00000000
