3
Lattice="15.0 0.0 0.0 0.0 15.0 0.0 0.0 0.0 15.0" Properties=species:S:1:pos:R:3 energy=-0.255/ 0.096/ 0.21 pbc="T T T"
O       -0.00181727       0.00990008       0.00000000
H        1.06844446      -0.09391583       0.00000000
H       -0.31829190       0.86574265       0.00000000
