3
Lattice="15.0 0.0 0.0 0.0 15.0 0.0 0.0 0.0 15.0" Properties=species:S:1:pos:R:3 energy=0.247/ -0.153/ -0.143 pbc="T T T"
O        0.00099260      -0.00705674       0.00000000
H        0.85273440       0.09238989       0.00000000
H       -0.14717149       0.94855227       0.00000000
