3
Lattice="15.0 0.0 0.0 0.0 15.0 0.0 0.0 0.0 15.0" Properties=species:S:1:pos:R:3 energy=-0.182/ -0.016/ -0.295 pbc="T T T"
O        0.01260580      -0.00095386       0.00000000
H        0.84621635      -0.06489974       0.00000000
H       -0.32496746       1.00898567       0.00000000
