3
Lattice="15.0 0.0 0.0 0.0 15.0 0.0 0.0 0.0 15.0" Properties=species:S:1:pos:R:3 energy=-0.312/ 0.201/ -0.025 pbc="T T T"
O        0.00442016       0.00425361       0.00000000
H        1.02202539      -0.11694847       0.00000000
H       -0.37086587       0.97838884       0.00000000
