3
Lattice="15.0 0.0 0.0 0.0 15.0 0.0 0.0 0.0 15.0" Properties=species:S:1:pos:R:3 energy=0.164/ 0.148/ -0.206 pbc="T T T"
O       -0.00013855      -0.01216668       0.00000000
H        0.93940495       0.05512978       0.00000000
H       -0.21589079       1.06691156       0.00000000
