3
Lattice="15.0 0.0 0.0 0.0 15.0 0.0 0.0 0.0 15.0" Properties=species:S:1:pos:R:3 energy=0.045/ 0.237/ -0.202 pbc="T T T"
O        0.00096701      -0.01052113       0.00000000
H        0.97285535       0.01034474       0.00000000
H       -0.26688837       1.08558075       0.00000000
