3
Lattice="15.0 0.0 0.0 0.0 15.0 0.0 0.0 0.0 15.0" Properties=species:S:1:pos:R:3 energy=-0.221/ 0.196/ -0.186 pbc="T T T"
O        0.00701476      -0.00178899       0.00000000
H        0.96286918      -0.08394805       0.00000000
H       -0.35288700       1.04128864       0.00000000
