3
Lattice="15.0 0.0 0.0 0.0 15.0 0.0 0.0 0.0 15.0" Properties=species:S:1:pos:R:3 energy=0.239/ 0.087/ -0.059 pbc="T T T"
O       -0.00497284      -0.00986299       0.00000000
H        0.97003900       0.08366061       0.00000000
H       -0.16980041       1.00181930       0.00000000
