3
Lattice="15.0 0.0 0.0 0.0 15.0 0.0 0.0 0.0 15.0" Properties=species:S:1:pos:R:3 energy=-0.241/ -0.133/ 0.091 pbc="T T T"
O        0.00484575       0.01155675       0.00000000
H        0.94230006      -0.08329690       0.00000000
H       -0.29789420       0.82883056       0.00000000
