3
Lattice="15.0 0.0 0.0 0.0 15.0 0.0 0.0 0.0 15.0" Properties=species:S:1:pos:R:3 energy=0.187/ 0.254/ 0.017 pbc="T T T"
O       -0.00862861      -0.01010461       0.00000000
H        1.05831292       0.06092888       0.00000000
H       -0.20005518       1.02838623       0.00000000
