3
Lattice="15.0 0.0 0.0 0.0 15.0 0.0 0.0 0.0 15.0" Properties=species:S:1:pos:R:3 energy=0.365/ 0.273/ 0.086 pbc="T T T"
O       -0.01478637      -0.01405493       0.00000000
H        1.09060817       0.12418635       0.00000000
H       -0.13462076       1.02782296       0.00000000
