3
Lattice="15.0 0.0 0.0 0.0 15.0 0.0 0.0 0.0 15.0" Properties=species:S:1:pos:R:3 energy=-0.007/ -0.164/ 0.264 pbc="T T T"
O       -0.00470376       0.00933208       0.00000000
H        0.99372880       0.00146536       0.00000000
H       -0.19776323       0.77937508       0.00000000
