3
Lattice="15.0 0.0 0.0 0.0 15.0 0.0 0.0 0.0 15.0" Properties=species:S:1:pos:R:3 energy=-0.114/ -0.08/ 0.125 pbc="T T T"
O        0.00024204       0.00762113       0.00000000
H        0.97408862      -0.03884438       0.00000000
H       -0.25661747       0.84683917       0.00000000
