3
Lattice="15.0 0.0 0.0 0.0 15.0 0.0 0.0 0.0 15.0" Properties=species:S:1:pos:R:3 energy=-0.154/ 0.288/ -0.073 pbc="T T T"
O        0.00092688      -0.00308767       0.00000000
H        1.03702942      -0.06241609       0.00000000
H       -0.33042758       1.04036783       0.00000000
