3
Lattice="15.0 0.0 0.0 0.0 15.0 0.0 0.0 0.0 15.0" Properties=species:S:1:pos:R:3 energy=-0.369/ 0.279/ -0.134 pbc="T T T"
O        0.00752036       0.00187416       0.00000000
H        1.01092629      -0.13903902       0.00000000
H       -0.40896975       1.03824312       0.00000000
