3
Lattice="15.0 0.0 0.0 0.0 15.0 0.0 0.0 0.0 15.0" Properties=species:S:1:pos:R:3 energy=-0.134/ -0.05/ 0.252 pbc="T T T"
O       -0.00337485       0.01034136       0.00000000
H        1.03073099      -0.04682535       0.00000000
H       -0.25585737       0.81164825       0.00000000
