3
Lattice="15.0 0.0 0.0 0.0 15.0 0.0 0.0 0.0 15.0" Properties=species:S:1:pos:R:3 energy=0.381/ 0.23/ -0.178 pbc="T T T"
O       -0.00703390      -0.01940087       0.00000000
H        0.98040660       0.13106401       0.00000000
H       -0.14745626       1.10578887       0.00000000
