3
Lattice="15.0 0.0 0.0 0.0 15.0 0.0 0.0 0.0 15.0" Properties=species:S:1:pos:R:3 energy=-0.118/ 0.246/ -0.239 pbc="T T T"
O        0.00545695      -0.00690158       0.00000000
H        0.96221162      -0.04812926       0.00000000
H       -0.32750478       1.08661018       0.00000000
