3
Lattice="15.0 0.0 0.0 0.0 15.0 0.0 0.0 0.0 15.0" Properties=species:S:1:pos:R:3 energy=0.275/ 0.051/ -0.151 pbc="T T T"
O       -0.00260542      -0.01216959       0.00000000
H        0.92406953       0.09744890       0.00000000
H       -0.16140333       1.02463827       0.00000000
