3
Lattice="15.0 0.0 0.0 0.0 15.0 0.0 0.0 0.0 15.0" Properties=species:S:1:pos:R:3 energy=0.185/ -0.174/ -0.017 pbc="T T T"
O       -0.00085524      -0.00207375       0.00000000
H        0.88995834       0.07055599       0.00000000
H       -0.15506964       0.89130275       0.00000000
