3
Lattice="15.0 0.0 0.0 0.0 15.0 0.0 0.0 0.0 15.0" Properties=species:S:1:pos:R:3 energy=-0.347/ -0.069/ -0.165 pbc="T T T"
O        0.01340497       0.00762622       0.00000000
H        0.87312354      -0.12267848       0.00000000
H       -0.36455968       0.93059251       0.00000000
