3
Lattice="15.0 0.0 0.0 0.0 15.0 0.0 0.0 0.0 15.0" Properties=species:S:1:pos:R:3 energy=-0.394/ -0.099/ -0.179 pbc="T T T"
O        0.01531263       0.00930968       0.00000000
H        0.85696192      -0.13894323       0.00000000
H       -0.37867456       0.92013954       0.00000000
