3
Lattice="15.0 0.0 0.0 0.0 15.0 0.0 0.0 0.0 15.0" Properties=species:S:1:pos:R:3 energy=0.03/ -0.045/ 0.195 pbc="T T T"
O       -0.00542909       0.00434906       0.00000000
H        1.01227418       0.01170481       0.00000000
H       -0.20479675       0.84821986       0.00000000
