3
Lattice="15.0 0.0 0.0 0.0 15.0 0.0 0.0 0.0 15.0" Properties=species:S:1:pos:R:3 energy=0.095/ 0.21/ -0.026 pbc="T T T"
O       -0.00466801      -0.00753781       0.00000000
H        1.02630460       0.02888571       0.00000000
H       -0.23090535       1.01969242       0.00000000
