3
Lattice="15.0 0.0 0.0 0.0 15.0 0.0 0.0 0.0 15.0" Properties=species:S:1:pos:R:3 energy=0.375/ -0.118/ -0.002 pbc="T T T"
O       -0.00635059      -0.00830835       0.00000000
H        0.91640672       0.13738806       0.00000000
H       -0.09430089       0.92341796       0.00000000
