3
Lattice="15.0 0.0 0.0 0.0 15.0 0.0 0.0 0.0 15.0" Properties=species:S:1:pos:R:3 energy=0.37/ 0.031/ 0.157 pbc="T T T"
O       -0.01308054      -0.00770870       0.00000000
H        1.02792187       0.13184421       0.00000000
H       -0.09900714       0.91944541       0.00000000
