3
Lattice="15.0 0.0 0.0 0.0 15.0 0.0 0.0 0.0 15.0" Properties=species:S:1:pos:R:3 energy=0.146/ 0.272/ -0.162 pbc="T T T"
O       -0.00295386      -0.01321654       0.00000000
H        1.00055610       0.04564841       0.00000000
H       -0.23236116       1.09305518       0.00000000
