3
Lattice="15.0 0.0 0.0 0.0 15.0 0.0 0.0 0.0 15.0" Properties=species:S:1:pos:R:3 energy=0.121/ 0.195/ -0.12 pbc="T T T"
O       -0.00236859      -0.01004204       0.00000000
H        0.98724438       0.03876959       0.00000000
H       -0.22833836       1.04955235       0.00000000
