3
Lattice="15.0 0.0 0.0 0.0 15.0 0.0 0.0 0.0 15.0" Properties=species:S:1:pos:R:3 energy=-0.134/ 0.006/ 0.256 pbc="T T T"
O       -0.00435382       0.00929662       0.00000000
H        1.05243577      -0.04832286       0.00000000
H       -0.26202524       0.82972669       0.00000000
