3
Lattice="15.0 0.0 0.0 0.0 15.0 0.0 0.0 0.0 15.0" Properties=species:S:1:pos:R:3 energy=-0.143/ -0.131/ -0.166 pbc="T T T"
O        0.00992388       0.00308686       0.00000000
H        0.85066960      -0.04803808       0.00000000
H       -0.28685630       0.92799455       0.00000000
