3
Lattice="15.0 0.0 0.0 0.0 15.0 0.0 0.0 0.0 15.0" Properties=species:S:1:pos:R:3 energy=0.172/ 0.066/ -0.211 pbc="T T T"
O        0.00111759      -0.01086442       0.00000000
H        0.90758967       0.06025096       0.00000000
H       -0.20401133       1.04112235       0.00000000
