3
Lattice="15.0 0.0 0.0 0.0 15.0 0.0 0.0 0.0 15.0" Properties=species:S:1:pos:R:3 energy=0.234/ 0.106/ -0.055 pbc="T T T"
O       -0.00528737      -0.01000242       0.00000000
H        0.97869121       0.08125751       0.00000000
H       -0.17346094       1.00643529       0.00000000
