3
Lattice="15.0 0.0 0.0 0.0 15.0 0.0 0.0 0.0 15.0" Properties=species:S:1:pos:R:3 energy=0.191/ 0.027/ -0.077 pbc="T T T"
O       -0.00247578      -0.00767669       0.00000000
H        0.94173942       0.06797311       0.00000000
H       -0.18113148       0.98280864       0.00000000
