3
Lattice="15.0 0.0 0.0 0.0 15.0 0.0 0.0 0.0 15.0" Properties=species:S:1:pos:R:3 energy=0.165/ 0.268/ -0.138 pbc="T T T"
O       -0.00399524      -0.01319304       0.00000000
H        1.00778884       0.05279200       0.00000000
H       -0.22306619       1.08553870       0.00000000
