3
Lattice="15.0 0.0 0.0 0.0 15.0 0.0 0.0 0.0 15.0" Properties=species:S:1:pos:R:3 energy=-0.153/ -0.039/ 0.198 pbc="T T T"
O       -0.00158982       0.00948864       0.00000000
H        1.01519823      -0.05407563       0.00000000
H       -0.26865456       0.83243183       0.00000000
