3
Lattice="15.0 0.0 0.0 0.0 15.0 0.0 0.0 0.0 15.0" Properties=species:S:1:pos:R:3 energy=-0.338/ -0.016/ 0.029 pbc="T T T"
O        0.00690020       0.01055216       0.00000000
H        0.96202574      -0.12076803       0.00000000
H       -0.35022656       0.88224560       0.00000000
