3
Lattice="15.0 0.0 0.0 0.0 15.0 0.0 0.0 0.0 15.0" Properties=species:S:1:pos:R:3 energy=0.148/ -0.08/ -0.014 pbc="T T T"
O       -0.00159063      -0.00288889       0.00000000
H        0.92485438       0.05508982       0.00000000
H       -0.17829489       0.91970593       0.00000000
