3
Lattice="15.0 0.0 0.0 0.0 15.0 0.0 0.0 0.0 15.0" Properties=species:S:1:pos:R:3 energy=0.369/ 0.24/ 0.249 pbc="T T T"
O       -0.01896042      -0.00992527       0.00000000
H        1.13716652       0.12646120       0.00000000
H       -0.11493388       0.96000750       0.00000000
