3
Lattice="15.0 0.0 0.0 0.0 15.0 0.0 0.0 0.0 15.0" Properties=species:S:1:pos:R:3 energy=-0.14/ 0.173/ 0.012 pbc="T T T"
O       -0.00000576       0.00071293       0.00000000
H        1.02591642      -0.05426832       0.00000000
H       -0.30451271       0.97190165       0.00000000
