3
Lattice="15.0 0.0 0.0 0.0 15.0 0.0 0.0 0.0 15.0" Properties=species:S:1:pos:R:3 energy=0.073/ 0.018/ 0.19 pbc="T T T"
O       -0.00726528       0.00173174       0.00000000
H        1.03409691       0.02563540       0.00000000
H       -0.19747729       0.87582821       0.00000000
