3
Lattice="15.0 0.0 0.0 0.0 15.0 0.0 0.0 0.0 15.0" Properties=species:S:1:pos:R:3 energy=0.29/ -0.129/ -0.221 pbc="T T T"
O        0.00188770      -0.01045346       0.00000000
H        0.83350663       0.10699249       0.00000000
H       -0.14214918       0.98785791       0.00000000
