3
Lattice="15.0 0.0 0.0 0.0 15.0 0.0 0.0 0.0 15.0" Properties=species:S:1:pos:R:3 energy=0.085/ 0.02/ -0.011 pbc="T T T"
O       -0.00189735      -0.00306394       0.00000000
H        0.96272975       0.03001031       0.00000000
H       -0.21130303       0.94756396       0.00000000
