3
Lattice="15.0 0.0 0.0 0.0 15.0 0.0 0.0 0.0 15.0" Properties=species:S:1:pos:R:3 energy=0.331/ -0.169/ 0.265 pbc="T T T"
O       -0.01210714      -0.00016645       0.00000000
H        0.99353394       0.12278559       0.00000000
H       -0.08006811       0.80880289       0.00000000
