3
Lattice="15.0 0.0 0.0 0.0 15.0 0.0 0.0 0.0 15.0" Properties=species:S:1:pos:R:3 energy=-0.084/ -0.138/ -0.061 pbc="T T T"
O        0.00574186       0.00386185       0.00000000
H        0.88641038      -0.02669450       0.00000000
H       -0.25622497       0.89435132       0.00000000
