3
Lattice="15.0 0.0 0.0 0.0 15.0 0.0 0.0 0.0 15.0" Properties=species:S:1:pos:R:3 energy=-0.3198347381 pbc="T T T"
O        0.00000000       0.00000000       0.00000000
H        0.87148370       0.00000000       0.00000000
H        0.04649089       0.85746526       0.00000000
3
Lattice="15.0 0.0 0.0 0.0 15.0 0.0 0.0 0.0 15.0" Properties=species:S:1:pos:R:3 energy=0.000287749 pbc="T T T"
O        0.00000000       0.00000000       0.00000000
H        0.97405750       0.00000000       0.00000000
H       -0.27398716       0.92991549       0.00000000
3
Lattice="15.0 0.0 0.0 0.0 15.0 0.0 0.0 0.0 15.0" Properties=species:S:1:pos:R:3 energy=-0.0003245116 pbc="T T T"
O        0.00000000       0.00000000       0.00000000
H        0.94834284       0.00000000       0.00000000
H       -0.19670128       0.93038371       0.00000000
3
Lattice="15.0 0.0 0.0 0.0 15.0 0.0 0.0 0.0 15.0" Properties=species:S:1:pos:R:3 energy=0.0285924552 pbc="T T T"
O        0.00000000       0.00000000       0.00000000
H        0.93292284       0.00000000       0.00000000
H       -0.29123463       0.80144885       0.00000000
3
Lattice="15.0 0.0 0.0 0.0 15.0 0.0 0.0 0.0 15.0" Properties=species:S:1:pos:R:3 energy=-0.2494964681 pbc="T T T"
O        0.00000000       0.00000000       0.00000000
H        1.11395071       0.00000000       0.00000000
H        0.10843556       0.98280401       0.00000000
3
Lattice="15.0 0.0 0.0 0.0 15.0 0.0 0.0 0.0 15.0" Properties=species:S:1:pos:R:3 energy=-0.8136930188 pbc="T T T"
O        0.00000000       0.00000000       0.00000000
H        1.25593646       0.00000000       0.00000000
H        0.14999106       1.03955896       0.00000000
3
Lattice="15.0 0.0 0.0 0.0 15.0 0.0 0.0 0.0 15.0" Properties=species:S:1:pos:R:3 energy=-0.0014457319 pbc="T T T"
O        0.00000000       0.00000000       0.00000000
H        0.98566730       0.00000000       0.00000000
H       -0.14251279       0.89324731       0.00000000
3
Lattice="15.0 0.0 0.0 0.0 15.0 0.0 0.0 0.0 15.0" Properties=species:S:1:pos:R:3 energy=-0.0004728177 pbc="T T T"
O        0.00000000       0.00000000       0.00000000
H        0.96096260       0.00000000       0.00000000
H       -0.23184224       0.95540445       0.00000000
3
Lattice="15.0 0.0 0.0 0.0 15.0 0.0 0.0 0.0 15.0" Properties=species:S:1:pos:R:3 energy=0.0349069259 pbc="T T T"
O        0.00000000       0.00000000       0.00000000
H        1.12739719       0.00000000       0.00000000
H       -0.48960678       0.95795479       0.00000000
3
Lattice="15.0 0.0 0.0 0.0 15.0 0.0 0.0 0.0 15.0" Properties=species:S:1:pos:R:3 energy=0.0002795329 pbc="T T T"
O        0.00000000       0.00000000       0.00000000
H        1.02530383       0.00000000       0.00000000
H       -0.21217171       0.99373921       0.00000000
3
Lattice="15.0 0.0 0.0 0.0 15.0 0.0 0.0 0.0 15.0" Properties=species:S:1:pos:R:3 energy=0.039882394 pbc="T T T"
O        0.00000000       0.00000000       0.00000000
H        1.10063089       0.00000000       0.00000000
H       -0.01298372       1.19748511       0.00000000
3
Lattice="15.0 0.0 0.0 0.0 15.0 0.0 0.0 0.0 15.0" Properties=species:S:1:pos:R:3 energy=-0.002901392 pbc="T T T"
O        0.00000000       0.00000000       0.00000000
H        0.96784187       0.00000000       0.00000000
H       -0.31612497       0.88455285       0.00000000
3
Lattice="15.0 0.0 0.0 0.0 15.0 0.0 0.0 0.0 15.0" Properties=species:S:1:pos:R:3 energy=0.060736213 pbc="T T T"
O        0.00000000       0.00000000       0.00000000
H        1.13536906       0.00000000       0.00000000
H       -0.51177245       0.96733510       0.00000000
3
Lattice="15.0 0.0 0.0 0.0 15.0 0.0 0.0 0.0 15.0" Properties=species:S:1:pos:R:3 energy=0.0813623576 pbc="T T T"
O        0.00000000       0.00000000       0.00000000
H        0.99561321       0.00000000       0.00000000
H       -0.57617229       0.84402300       0.00000000
3
Lattice="15.0 0.0 0.0 0.0 15.0 0.0 0.0 0.0 15.0" Properties=species:S:1:pos:R:3 energy=-0.007031612 pbc="T T T"
O        0.00000000       0.00000000       0.00000000
H        0.93698901       0.00000000       0.00000000
H       -0.38410490       0.86682302       0.00000000
3
Lattice="15.0 0.0 0.0 0.0 15.0 0.0 0.0 0.0 15.0" Properties=species:S:1:pos:R:3 energy=0.0005150214 pbc="T T T"
O        0.00000000       0.00000000       0.00000000
H        0.94203050       0.00000000       0.00000000
H       -0.27120858       0.92759849       0.00000000
3
Lattice="15.0 0.0 0.0 0.0 15.0 0.0 0.0 0.0 15.0" Properties=species:S:1:pos:R:3 energy=-0.0610640114 pbc="T T T"
O        0.00000000       0.00000000       0.00000000
H        1.04968479       0.00000000       0.00000000
H        0.10692493       1.26492972       0.00000000
3
Lattice="15.0 0.0 0.0 0.0 15.0 0.0 0.0 0.0 15.0" Properties=species:S:1:pos:R:3 energy=-0.0785885786 pbc="T T T"
O        0.00000000       0.00000000       0.00000000
H        1.05701327       0.00000000       0.00000000
H       -0.06067040       0.93818391       0.00000000
3
Lattice="15.0 0.0 0.0 0.0 15.0 0.0 0.0 0.0 15.0" Properties=species:S:1:pos:R:3 energy=-0.0950140187 pbc="T T T"
O        0.00000000       0.00000000       0.00000000
H        0.96983193       0.00000000       0.00000000
H        0.10667685       0.96348616       0.00000000
3
Lattice="15.0 0.0 0.0 0.0 15.0 0.0 0.0 0.0 15.0" Properties=species:S:1:pos:R:3 energy=-0.0555392388 pbc="T T T"
O        0.00000000       0.00000000       0.00000000
H        0.95268611       0.00000000       0.00000000
H       -0.23889551       1.04276034       0.00000000
3
Lattice="15.0 0.0 0.0 0.0 15.0 0.0 0.0 0.0 15.0" Properties=species:S:1:pos:R:3 energy=0.0006348311 pbc="T T T"
O        0.00000000       0.00000000       0.00000000
H        0.95412175       0.00000000       0.00000000
H       -0.18628790       0.95489150       0.00000000
3
Lattice="15.0 0.0 0.0 0.0 15.0 0.0 0.0 0.0 15.0" Properties=species:S:1:pos:R:3 energy=-0.0014343518 pbc="T T T"
O        0.00000000       0.00000000       0.00000000
H        0.95042887       0.00000000       0.00000000
H       -0.28893570       0.95551643       0.00000000
3
Lattice="15.0 0.0 0.0 0.0 15.0 0.0 0.0 0.0 15.0" Properties=species:S:1:pos:R:3 energy=-0.0001702287 pbc="T T T"
O        0.00000000       0.00000000       0.00000000
H        0.95936716       0.00000000       0.00000000
H       -0.18690651       0.93989729       0.00000000
3
Lattice="15.0 0.0 0.0 0.0 15.0 0.0 0.0 0.0 15.0" Properties=species:S:1:pos:R:3 energy=0.0897756446 pbc="T T T"
O        0.00000000       0.00000000       0.00000000
H        1.01626130       0.00000000       0.00000000
H       -0.32381142       0.75889457       0.00000000
3
Lattice="15.0 0.0 0.0 0.0 15.0 0.0 0.0 0.0 15.0" Properties=species:S:1:pos:R:3 energy=-0.0017484126 pbc="T T T"
O        0.00000000       0.00000000       0.00000000
H        0.99020427       0.00000000       0.00000000
H       -0.20748995       0.93051829       0.00000000
3
Lattice="15.0 0.0 0.0 0.0 15.0 0.0 0.0 0.0 15.0" Properties=species:S:1:pos:R:3 energy=-5.8362e-06 pbc="T T T"
O        0.00000000       0.00000000       0.00000000
H        0.96837925       0.00000000       0.00000000
H       -0.26880772       0.92091776       0.00000000
3
Lattice="15.0 0.0 0.0 0.0 15.0 0.0 0.0 0.0 15.0" Properties=species:S:1:pos:R:3 energy=0.0001716179 pbc="T T T"
O        0.00000000       0.00000000       0.00000000
H        0.94454886       0.00000000       0.00000000
H       -0.23964440       0.93012445       0.00000000
3
Lattice="15.0 0.0 0.0 0.0 15.0 0.0 0.0 0.0 15.0" Properties=species:S:1:pos:R:3 energy=0.0356552671 pbc="T T T"
O        0.00000000       0.00000000       0.00000000
H        0.95360438       0.00000000       0.00000000
H       -0.72024125       1.01456404       0.00000000
3
Lattice="15.0 0.0 0.0 0.0 15.0 0.0 0.0 0.0 15.0" Properties=species:S:1:pos:R:3 energy=0.0019513756 pbc="T T T"
O        0.00000000       0.00000000       0.00000000
H        0.92533737       0.00000000       0.00000000
H       -0.21543390       0.93717167       0.00000000
3
Lattice="15.0 0.0 0.0 0.0 15.0 0.0 0.0 0.0 15.0" Properties=species:S:1:pos:R:3 energy=0.0178063005 pbc="T T T"
O        0.00000000       0.00000000       0.00000000
H        0.89348918       0.00000000       0.00000000
H       -0.17517712       0.96813484       0.00000000
3
Lattice="15.0 0.0 0.0 0.0 15.0 0.0 0.0 0.0 15.0" Properties=species:S:1:pos:R:3 energy=0.0461693651 pbc="T T T"
O        0.00000000       0.00000000       0.00000000
H        0.98925717       0.00000000       0.00000000
H       -0.35099206       0.75350022       0.00000000
3
Lattice="15.0 0.0 0.0 0.0 15.0 0.0 0.0 0.0 15.0" Properties=species:S:1:pos:R:3 energy=-0.0656041017 pbc="T T T"
O        0.00000000       0.00000000       0.00000000
H        0.87177901       0.00000000       0.00000000
H       -0.35470091       0.78667084       0.00000000
3
Lattice="15.0 0.0 0.0 0.0 15.0 0.0 0.0 0.0 15.0" Properties=species:S:1:pos:R:3 energy=0.0039967759 pbc="T T T"
O        0.00000000       0.00000000       0.00000000
H        0.97964258       0.00000000       0.00000000
H       -0.33077386       0.92556094       0.00000000
3
Lattice="15.0 0.0 0.0 0.0 15.0 0.0 0.0 0.0 15.0" Properties=species:S:1:pos:R:3 energy=0.4648462736 pbc="T T T"
O        0.00000000       0.00000000       0.00000000
H        1.00437296       0.00000000       0.00000000
H       -0.08193531       0.75728747       0.00000000
3
Lattice="15.0 0.0 0.0 0.0 15.0 0.0 0.0 0.0 15.0" Properties=species:S:1:pos:R:3 energy=4.83647e-05 pbc="T T T"
O        0.00000000       0.00000000       0.00000000
H        0.94322897       0.00000000       0.00000000
H       -0.21206152       0.93033219       0.00000000
3
Lattice="15.0 0.0 0.0 0.0 15.0 0.0 0.0 0.0 15.0" Properties=species:S:1:pos:R:3 energy=0.0156026299 pbc="T T T"
O        0.00000000       0.00000000       0.00000000
H        1.01866002       0.00000000       0.00000000
H       -0.03840283       1.00882088       0.00000000
3
Lattice="15.0 0.0 0.0 0.0 15.0 0.0 0.0 0.0 15.0" Properties=species:S:1:pos:R:3 energy=-0.0060653485 pbc="T T T"
O        0.00000000       0.00000000       0.00000000
H        0.95614725       0.00000000       0.00000000
H       -0.43838712       0.85400710       0.00000000
3
Lattice="15.0 0.0 0.0 0.0 15.0 0.0 0.0 0.0 15.0" Properties=species:S:1:pos:R:3 energy=-0.000770963 pbc="T T T"
O        0.00000000       0.00000000       0.00000000
H        0.95193022       0.00000000       0.00000000
H       -0.18528760       0.92882664       0.00000000
3
Lattice="15.0 0.0 0.0 0.0 15.0 0.0 0.0 0.0 15.0" Properties=species:S:1:pos:R:3 energy=-0.0727324644 pbc="T T T"
O        0.00000000       0.00000000       0.00000000
H        0.86718153       0.00000000       0.00000000
H       -0.37517122       0.79190317       0.00000000
3
Lattice="15.0 0.0 0.0 0.0 15.0 0.0 0.0 0.0 15.0" Properties=species:S:1:pos:R:3 energy=-0.108173778 pbc="T T T"
O        0.00000000       0.00000000       0.00000000
H        0.96601886       0.00000000       0.00000000
H       -0.61549266       0.75180862       0.00000000
3
Lattice="15.0 0.0 0.0 0.0 15.0 0.0 0.0 0.0 15.0" Properties=species:S:1:pos:R:3 energy=-0.0351532496 pbc="T T T"
O        0.00000000       0.00000000       0.00000000
H        0.92070242       0.00000000       0.00000000
H       -0.40363265       0.82982017       0.00000000
3
Lattice="15.0 0.0 0.0 0.0 15.0 0.0 0.0 0.0 15.0" Properties=species:S:1:pos:R:3 energy=0.0029745959 pbc="T T T"
O        0.00000000       0.00000000       0.00000000
H        0.99989729       0.00000000       0.00000000
H       -0.17065451       0.98354906       0.00000000
3
Lattice="15.0 0.0 0.0 0.0 15.0 0.0 0.0 0.0 15.0" Properties=species:S:1:pos:R:3 energy=-0.0004926892 pbc="T T T"
O        0.00000000       0.00000000       0.00000000
H        0.86436355       0.00000000       0.00000000
H       -0.17583405       0.87276112       0.00000000
3
Lattice="15.0 0.0 0.0 0.0 15.0 0.0 0.0 0.0 15.0" Properties=species:S:1:pos:R:3 energy=0.0390428709 pbc="T T T"
O        0.00000000       0.00000000       0.00000000
H        0.95256473       0.00000000       0.00000000
H       -0.00703417       1.02953479       0.00000000
3
Lattice="15.0 0.0 0.0 0.0 15.0 0.0 0.0 0.0 15.0" Properties=species:S:1:pos:R:3 energy=-0.0025681597 pbc="T T T"
O        0.00000000       0.00000000       0.00000000
H        0.96700576       0.00000000       0.00000000
H       -0.16004073       0.92454822       0.00000000
3
Lattice="15.0 0.0 0.0 0.0 15.0 0.0 0.0 0.0 15.0" Properties=species:S:1:pos:R:3 energy=-0.0041145249 pbc="T T T"
O        0.00000000       0.00000000       0.00000000
H        0.95385321       0.00000000       0.00000000
H       -0.35636525       0.87883250       0.00000000
3
Lattice="15.0 0.0 0.0 0.0 15.0 0.0 0.0 0.0 15.0" Properties=species:S:1:pos:R:3 energy=-0.0018866993 pbc="T T T"
O        0.00000000       0.00000000       0.00000000
H        0.99075973       0.00000000       0.00000000
H       -0.20659278       0.92970337       0.00000000
3
Lattice="15.0 0.0 0.0 0.0 15.0 0.0 0.0 0.0 15.0" Properties=species:S:1:pos:R:3 energy=-0.7797920768 pbc="T T T"
O        0.00000000       0.00000000       0.00000000
H        1.17193337       0.00000000       0.00000000
H        0.10317311       0.91588638       0.00000000
3
Lattice="15.0 0.0 0.0 0.0 15.0 0.0 0.0 0.0 15.0" Properties=species:S:1:pos:R:3 energy=-0.0430697056 pbc="T T T"
O        0.00000000       0.00000000       0.00000000
H        0.92256167       0.00000000       0.00000000
H       -0.01054617       0.94609461       0.00000000
3
Lattice="15.0 0.0 0.0 0.0 15.0 0.0 0.0 0.0 15.0" Properties=species:S:1:pos:R:3 energy=0.0089815307 pbc="T T T"
O        0.00000000       0.00000000       0.00000000
H        1.00391633       0.00000000       0.00000000
H       -0.35084370       0.93856706       0.00000000
3
Lattice="15.0 0.0 0.0 0.0 15.0 0.0 0.0 0.0 15.0" Properties=species:S:1:pos:R:3 energy=-0.0020625281 pbc="T T T"
O        0.00000000       0.00000000       0.00000000
H        0.99041199       0.00000000       0.00000000
H       -0.13899706       0.95435730       0.00000000
3
Lattice="15.0 0.0 0.0 0.0 15.0 0.0 0.0 0.0 15.0" Properties=species:S:1:pos:R:3 energy=0.0271371814 pbc="T T T"
O        0.00000000       0.00000000       0.00000000
H        0.98243782       0.00000000       0.00000000
H       -0.22032117       0.85391820       0.00000000
3
Lattice="15.0 0.0 0.0 0.0 15.0 0.0 0.0 0.0 15.0" Properties=species:S:1:pos:R:3 energy=-0.0243195402 pbc="T T T"
O        0.00000000       0.00000000       0.00000000
H        0.95661710       0.00000000       0.00000000
H       -0.44330535       0.83559477       0.00000000
3
Lattice="15.0 0.0 0.0 0.0 15.0 0.0 0.0 0.0 15.0" Properties=species:S:1:pos:R:3 energy=-0.1666062712 pbc="T T T"
O        0.00000000       0.00000000       0.00000000
H        0.93716230       0.00000000       0.00000000
H       -0.64291662       0.72860122       0.00000000
3
Lattice="15.0 0.0 0.0 0.0 15.0 0.0 0.0 0.0 15.0" Properties=species:S:1:pos:R:3 energy=-0.9077863883 pbc="T T T"
O        0.00000000       0.00000000       0.00000000
H        1.19713585       0.00000000       0.00000000
H       -0.55230341       0.74570949       0.00000000
3
Lattice="15.0 0.0 0.0 0.0 15.0 0.0 0.0 0.0 15.0" Properties=species:S:1:pos:R:3 energy=-8.3085e-05 pbc="T T T"
O        0.00000000       0.00000000       0.00000000
H        0.95030098       0.00000000       0.00000000
H       -0.22580579       0.94782614       0.00000000
3
Lattice="15.0 0.0 0.0 0.0 15.0 0.0 0.0 0.0 15.0" Properties=species:S:1:pos:R:3 energy=0.0032923326 pbc="T T T"
O        0.00000000       0.00000000       0.00000000
H        0.97421543       0.00000000       0.00000000
H       -0.32110403       0.93109914       0.00000000
3
Lattice="15.0 0.0 0.0 0.0 15.0 0.0 0.0 0.0 15.0" Properties=species:S:1:pos:R:3 energy=-0.6759034792 pbc="T T T"
O        0.00000000       0.00000000       0.00000000
H        0.98566686       0.00000000       0.00000000
H       -0.22209387       1.23251317       0.00000000
3
Lattice="15.0 0.0 0.0 0.0 15.0 0.0 0.0 0.0 15.0" Properties=species:S:1:pos:R:3 energy=-0.0360158904 pbc="T T T"
O        0.00000000       0.00000000       0.00000000
H        0.99281344       0.00000000       0.00000000
H       -0.05470170       0.92372274       0.00000000
3
Lattice="15.0 0.0 0.0 0.0 15.0 0.0 0.0 0.0 15.0" Properties=species:S:1:pos:R:3 energy=-0.0845033205 pbc="T T T"
O        0.00000000       0.00000000       0.00000000
H        1.07840868       0.00000000       0.00000000
H       -0.36474592       0.87282388       0.00000000
3
Lattice="15.0 0.0 0.0 0.0 15.0 0.0 0.0 0.0 15.0" Properties=species:S:1:pos:R:3 energy=-0.0107661221 pbc="T T T"
O        0.00000000       0.00000000       0.00000000
H        0.89494562       0.00000000       0.00000000
H       -0.14750338       0.89478242       0.00000000
3
Lattice="15.0 0.0 0.0 0.0 15.0 0.0 0.0 0.0 15.0" Properties=species:S:1:pos:R:3 energy=0.0333519699 pbc="T T T"
O        0.00000000       0.00000000       0.00000000
H        0.86542488       0.00000000       0.00000000
H       -0.13696443       0.94274800       0.00000000
3
Lattice="15.0 0.0 0.0 0.0 15.0 0.0 0.0 0.0 15.0" Properties=species:S:1:pos:R:3 energy=0.0098205773 pbc="T T T"
O        0.00000000       0.00000000       0.00000000
H        0.96388133       0.00000000       0.00000000
H       -0.37609283       0.95509367       0.00000000
3
Lattice="15.0 0.0 0.0 0.0 15.0 0.0 0.0 0.0 15.0" Properties=species:S:1:pos:R:3 energy=-0.0186455397 pbc="T T T"
O        0.00000000       0.00000000       0.00000000
H        0.90321881       0.00000000       0.00000000
H       -0.34897909       0.84444722       0.00000000
3
Lattice="15.0 0.0 0.0 0.0 15.0 0.0 0.0 0.0 15.0" Properties=species:S:1:pos:R:3 energy=-0.0006585268 pbc="T T T"
O        0.00000000       0.00000000       0.00000000
H        0.98401077       0.00000000       0.00000000
H       -0.23621253       0.92964647       0.00000000
3
Lattice="15.0 0.0 0.0 0.0 15.0 0.0 0.0 0.0 15.0" Properties=species:S:1:pos:R:3 energy=-0.2348809751 pbc="T T T"
O        0.00000000       0.00000000       0.00000000
H        0.86138277       0.00000000       0.00000000
H        0.05286764       0.89807612       0.00000000
3
Lattice="15.0 0.0 0.0 0.0 15.0 0.0 0.0 0.0 15.0" Properties=species:S:1:pos:R:3 energy=-0.0076835119 pbc="T T T"
O        0.00000000       0.00000000       0.00000000
H        0.85677741       0.00000000       0.00000000
H       -0.27899085       0.82278161       0.00000000
3
Lattice="15.0 0.0 0.0 0.0 15.0 0.0 0.0 0.0 15.0" Properties=species:S:1:pos:R:3 energy=0.0209833444 pbc="T T T"
O        0.00000000       0.00000000       0.00000000
H        0.96330829       0.00000000       0.00000000
H       -0.07026968       1.01919971       0.00000000
3
Lattice="15.0 0.0 0.0 0.0 15.0 0.0 0.0 0.0 15.0" Properties=species:S:1:pos:R:3 energy=-0.0222428716 pbc="T T T"
O        0.00000000       0.00000000       0.00000000
H        0.99651876       0.00000000       0.00000000
H       -0.09024492       0.89826390       0.00000000
3
Lattice="15.0 0.0 0.0 0.0 15.0 0.0 0.0 0.0 15.0" Properties=species:S:1:pos:R:3 energy=-0.0011851115 pbc="T T T"
O        0.00000000       0.00000000       0.00000000
H        0.99391679       0.00000000       0.00000000
H       -0.00429854       0.98672674       0.00000000
3
Lattice="15.0 0.0 0.0 0.0 15.0 0.0 0.0 0.0 15.0" Properties=species:S:1:pos:R:3 energy=0.1466092055 pbc="T T T"
O        0.00000000       0.00000000       0.00000000
H        0.93019618       0.00000000       0.00000000
H        0.23308525       1.19754118       0.00000000
3
Lattice="15.0 0.0 0.0 0.0 15.0 0.0 0.0 0.0 15.0" Properties=species:S:1:pos:R:3 energy=-0.0001135402 pbc="T T T"
O        0.00000000       0.00000000       0.00000000
H        0.95730318       0.00000000       0.00000000
H       -0.19252220       0.93876726       0.00000000
3
Lattice="15.0 0.0 0.0 0.0 15.0 0.0 0.0 0.0 15.0" Properties=species:S:1:pos:R:3 energy=2.12696e-05 pbc="T T T"
O        0.00000000       0.00000000       0.00000000
H        0.96177283       0.00000000       0.00000000
H       -0.25352254       0.92811912       0.00000000
3
Lattice="15.0 0.0 0.0 0.0 15.0 0.0 0.0 0.0 15.0" Properties=species:S:1:pos:R:3 energy=0.0007363495 pbc="T T T"
O        0.00000000       0.00000000       0.00000000
H        0.96973623       0.00000000       0.00000000
H       -0.16627816       0.95567740       0.00000000
3
Lattice="15.0 0.0 0.0 0.0 15.0 0.0 0.0 0.0 15.0" Properties=species:S:1:pos:R:3 energy=0.0009787693 pbc="T T T"
O        0.00000000       0.00000000       0.00000000
H        0.97218295       0.00000000       0.00000000
H       -0.36904454       0.89005859       0.00000000
3
Lattice="15.0 0.0 0.0 0.0 15.0 0.0 0.0 0.0 15.0" Properties=species:S:1:pos:R:3 energy=-0.0911746882 pbc="T T T"
O        0.00000000       0.00000000       0.00000000
H        0.86340646       0.00000000       0.00000000
H       -0.37439375       0.77804896       0.00000000
3
Lattice="15.0 0.0 0.0 0.0 15.0 0.0 0.0 0.0 15.0" Properties=species:S:1:pos:R:3 energy=-0.0017249888 pbc="T T T"
O        0.00000000       0.00000000       0.00000000
H        0.96728121       0.00000000       0.00000000
H       -0.29831022       0.87428288       0.00000000
3
Lattice="15.0 0.0 0.0 0.0 15.0 0.0 0.0 0.0 15.0" Properties=species:S:1:pos:R:3 energy=-0.0223608488 pbc="T T T"
O        0.00000000       0.00000000       0.00000000
H        1.00057832       0.00000000       0.00000000
H       -0.09406357       0.90078110       0.00000000
3
Lattice="15.0 0.0 0.0 0.0 15.0 0.0 0.0 0.0 15.0" Properties=species:S:1:pos:R:3 energy=4.69028e-05 pbc="T T T"
O        0.00000000       0.00000000       0.00000000
H        0.96357045       0.00000000       0.00000000
H       -0.20255036       0.94081395       0.00000000
3
Lattice="15.0 0.0 0.0 0.0 15.0 0.0 0.0 0.0 15.0" Properties=species:S:1:pos:R:3 energy=-1.2677312388 pbc="T T T"
O        0.00000000       0.00000000       0.00000000
H        1.03617650       0.00000000       0.00000000
H       -0.62712226       0.56493208       0.00000000
3
Lattice="15.0 0.0 0.0 0.0 15.0 0.0 0.0 0.0 15.0" Properties=species:S:1:pos:R:3 energy=-0.0002072084 pbc="T T T"
O        0.00000000       0.00000000       0.00000000
H        0.97045961       0.00000000       0.00000000
H       -0.14144464       0.95448802       0.00000000
3
Lattice="15.0 0.0 0.0 0.0 15.0 0.0 0.0 0.0 15.0" Properties=species:S:1:pos:R:3 energy=0.0006597285 pbc="T T T"
O        0.00000000       0.00000000       0.00000000
H        0.98674785       0.00000000       0.00000000
H       -0.19798843       0.96247070       0.00000000
3
Lattice="15.0 0.0 0.0 0.0 15.0 0.0 0.0 0.0 15.0" Properties=species:S:1:pos:R:3 energy=0.0125627471 pbc="T T T"
O        0.00000000       0.00000000       0.00000000
H        0.90129306       0.00000000       0.00000000
H       -0.30039357       0.94582599       0.00000000
3
Lattice="15.0 0.0 0.0 0.0 15.0 0.0 0.0 0.0 15.0" Properties=species:S:1:pos:R:3 energy=0.0015875709 pbc="T T T"
O        0.00000000       0.00000000       0.00000000
H        1.01163502       0.00000000       0.00000000
H       -0.51251592       0.83870701       0.00000000
3
Lattice="15.0 0.0 0.0 0.0 15.0 0.0 0.0 0.0 15.0" Properties=species:S:1:pos:R:3 energy=0.0104181561 pbc="T T T"
O        0.00000000       0.00000000       0.00000000
H        0.99411127       0.00000000       0.00000000
H       -0.27493135       0.84966209       0.00000000
3
Lattice="15.0 0.0 0.0 0.0 15.0 0.0 0.0 0.0 15.0" Properties=species:S:1:pos:R:3 energy=0.0509429162 pbc="T T T"
O        0.00000000       0.00000000       0.00000000
H        0.86144571       0.00000000       0.00000000
H       -0.40460431       0.87151968       0.00000000
3
Lattice="15.0 0.0 0.0 0.0 15.0 0.0 0.0 0.0 15.0" Properties=species:S:1:pos:R:3 energy=0.3723137518 pbc="T T T"
O        0.00000000       0.00000000       0.00000000
H        0.84468200       0.00000000       0.00000000
H       -0.67659616       0.83401011       0.00000000
3
Lattice="15.0 0.0 0.0 0.0 15.0 0.0 0.0 0.0 15.0" Properties=species:S:1:pos:R:3 energy=-0.0007435691 pbc="T T T"
O        0.00000000       0.00000000       0.00000000
H        0.92877746       0.00000000       0.00000000
H       -0.26649307       0.89134409       0.00000000
3
Lattice="15.0 0.0 0.0 0.0 15.0 0.0 0.0 0.0 15.0" Properties=species:S:1:pos:R:3 energy=-0.0782389572 pbc="T T T"
O        0.00000000       0.00000000       0.00000000
H        0.91560501       0.00000000       0.00000000
H       -0.48019313       0.79674385       0.00000000
3
Lattice="15.0 0.0 0.0 0.0 15.0 0.0 0.0 0.0 15.0" Properties=species:S:1:pos:R:3 energy=0.0057539465 pbc="T T T"
O        0.00000000       0.00000000       0.00000000
H        1.11397795       0.00000000       0.00000000
H       -0.45944813       1.10325140       0.00000000
3
Lattice="15.0 0.0 0.0 0.0 15.0 0.0 0.0 0.0 15.0" Properties=species:S:1:pos:R:3 energy=0.069349626 pbc="T T T"
O        0.00000000       0.00000000       0.00000000
H        0.90931406       0.00000000       0.00000000
H        0.03028238       1.05641813       0.00000000
3
Lattice="15.0 0.0 0.0 0.0 15.0 0.0 0.0 0.0 15.0" Properties=species:S:1:pos:R:3 energy=-1.0784358124 pbc="T T T"
O        0.00000000       0.00000000       0.00000000
H        0.97945983       0.00000000       0.00000000
H       -0.75306937       0.57768325       0.00000000
3
Lattice="15.0 0.0 0.0 0.0 15.0 0.0 0.0 0.0 15.0" Properties=species:S:1:pos:R:3 energy=0.093896529 pbc="T T T"
O        0.00000000       0.00000000       0.00000000
H        0.94798499       0.00000000       0.00000000
H        0.10596818       1.05854008       0.00000000
3
Lattice="15.0 0.0 0.0 0.0 15.0 0.0 0.0 0.0 15.0" Properties=species:S:1:pos:R:3 energy=0.0752046411 pbc="T T T"
O        0.00000000       0.00000000       0.00000000
H        0.92475000       0.00000000       0.00000000
H        0.21282212       1.04258496       0.00000000
3
Lattice="15.0 0.0 0.0 0.0 15.0 0.0 0.0 0.0 15.0" Properties=species:S:1:pos:R:3 energy=-0.0199245278 pbc="T T T"
O        0.00000000       0.00000000       0.00000000
H        0.95109069       0.00000000       0.00000000
H       -0.03368979       0.95577262       0.00000000
3
Lattice="15.0 0.0 0.0 0.0 15.0 0.0 0.0 0.0 15.0" Properties=species:S:1:pos:R:3 energy=-0.0012137779 pbc="T T T"
O        0.00000000       0.00000000       0.00000000
H        1.01304459       0.00000000       0.00000000
H       -0.21682895       0.88044454       0.00000000
3
Lattice="15.0 0.0 0.0 0.0 15.0 0.0 0.0 0.0 15.0" Properties=species:S:1:pos:R:3 energy=0.0047957442 pbc="T T T"
O        0.00000000       0.00000000       0.00000000
H        1.01884887       0.00000000       0.00000000
H       -0.36043376       0.92311074       0.00000000
3
Lattice="15.0 0.0 0.0 0.0 15.0 0.0 0.0 0.0 15.0" Properties=species:S:1:pos:R:3 energy=0.0242720045 pbc="T T T"
O        0.00000000       0.00000000       0.00000000
H        0.93356990       0.00000000       0.00000000
H       -0.52866718       0.83414224       0.00000000
3
Lattice="15.0 0.0 0.0 0.0 15.0 0.0 0.0 0.0 15.0" Properties=species:S:1:pos:R:3 energy=-0.0182305486 pbc="T T T"
O        0.00000000       0.00000000       0.00000000
H        1.05074619       0.00000000       0.00000000
H       -0.01106431       0.81071796       0.00000000
3
Lattice="15.0 0.0 0.0 0.0 15.0 0.0 0.0 0.0 15.0" Properties=species:S:1:pos:R:3 energy=-0.004517715 pbc="T T T"
O        0.00000000       0.00000000       0.00000000
H        0.93887603       0.00000000       0.00000000
H       -0.33680312       0.87920908       0.00000000
3
Lattice="15.0 0.0 0.0 0.0 15.0 0.0 0.0 0.0 15.0" Properties=species:S:1:pos:R:3 energy=-0.0038985536 pbc="T T T"
O        0.00000000       0.00000000       0.00000000
H        0.90665660       0.00000000       0.00000000
H       -0.17826108       0.89209405       0.00000000
3
Lattice="15.0 0.0 0.0 0.0 15.0 0.0 0.0 0.0 15.0" Properties=species:S:1:pos:R:3 energy=-0.1311964592 pbc="T T T"
O        0.00000000       0.00000000       0.00000000
H        1.04160556       0.00000000       0.00000000
H       -0.44855124       0.77889308       0.00000000
3
Lattice="15.0 0.0 0.0 0.0 15.0 0.0 0.0 0.0 15.0" Properties=species:S:1:pos:R:3 energy=-0.0186902589 pbc="T T T"
O        0.00000000       0.00000000       0.00000000
H        0.93861569       0.00000000       0.00000000
H       -0.38963007       0.84853219       0.00000000
3
Lattice="15.0 0.0 0.0 0.0 15.0 0.0 0.0 0.0 15.0" Properties=species:S:1:pos:R:3 energy=0.0003824168 pbc="T T T"
O        0.00000000       0.00000000       0.00000000
H        0.98047582       0.00000000       0.00000000
H       -0.26981216       0.94832073       0.00000000
3
Lattice="15.0 0.0 0.0 0.0 15.0 0.0 0.0 0.0 15.0" Properties=species:S:1:pos:R:3 energy=0.0152990513 pbc="T T T"
O        0.00000000       0.00000000       0.00000000
H        0.99936512       0.00000000       0.00000000
H       -0.09359249       1.00835432       0.00000000
3
Lattice="15.0 0.0 0.0 0.0 15.0 0.0 0.0 0.0 15.0" Properties=species:S:1:pos:R:3 energy=0.0540687898 pbc="T T T"
O        0.00000000       0.00000000       0.00000000
H        0.97776377       0.00000000       0.00000000
H        0.00877280       1.04704062       0.00000000
3
Lattice="15.0 0.0 0.0 0.0 15.0 0.0 0.0 0.0 15.0" Properties=species:S:1:pos:R:3 energy=-0.0316990348 pbc="T T T"
O        0.00000000       0.00000000       0.00000000
H        1.18398453       0.00000000       0.00000000
H       -0.12450244       1.12119721       0.00000000
3
Lattice="15.0 0.0 0.0 0.0 15.0 0.0 0.0 0.0 15.0" Properties=species:S:1:pos:R:3 energy=-0.0630392706 pbc="T T T"
O        0.00000000       0.00000000       0.00000000
H        0.96601810       0.00000000       0.00000000
H        0.10111138       0.97453726       0.00000000
3
Lattice="15.0 0.0 0.0 0.0 15.0 0.0 0.0 0.0 15.0" Properties=species:S:1:pos:R:3 energy=-0.0006260573 pbc="T T T"