3
Lattice="15.0 0.0 0.0 0.0 15.0 0.0 0.0 0.0 15.0" Properties=species:S:1:pos:R:3 energy=0.0050387269 pbc="T T T"
O        0.00000000       0.00000000       0.00000000
H        0.70000000       0.00000000       0.00000000
H       -0.17340000       0.67818000       0.00000000
3
Lattice="15.0 0.0 0.0 0.0 15.0 0.0 0.0 0.0 15.0" Properties=species:S:1:pos:R:3 energy=0.0366943199 pbc="T T T"
O        0.00000000       0.00000000       0.00000000
H        0.70000000       0.00000000       0.00000000
H       -0.17938000       0.70157000       0.00000000
3
Lattice="15.0 0.0 0.0 0.0 15.0 0.0 0.0 0.0 15.0" Properties=species:S:1:pos:R:3 energy=0.1209434022 pbc="T T T"
O        0.00000000       0.00000000       0.00000000
H        0.70000000       0.00000000       0.00000000
H       -0.18536000       0.72496000       0.00000000
3
Lattice="15.0 0.0 0.0 0.0 15.0 0.0 0.0 0.0 15.0" Properties=species:S:1:pos:R:3 energy=0.2418274563 pbc="T T T"
O        0.00000000       0.00000000       0.00000000
H        0.70000000       0.00000000       0.00000000
H       -0.19134000       0.74834000       0.00000000
3
Lattice="15.0 0.0 0.0 0.0 15.0 0.0 0.0 0.0 15.0" Properties=species:S:1:pos:R:3 energy=0.3862135080 pbc="T T T"
O        0.00000000       0.00000000       0.00000000
H        0.70000000       0.00000000       0.00000000
H       -0.19732000       0.77172000       0.00000000
3
Lattice="15.0 0.0 0.0 0.0 15.0 0.0 0.0 0.0 15.0" Properties=species:S:1:pos:R:3 energy=0.5429861495 pbc="T T T"
O        0.00000000       0.00000000       0.00000000
H        0.70000000       0.00000000       0.00000000
H       -0.20330000       0.79511000       0.00000000
3
Lattice="15.0 0.0 0.0 0.0 15.0 0.0 0.0 0.0 15.0" Properties=species:S:1:pos:R:3 energy=0.7031306126 pbc="T T T"
O        0.00000000       0.00000000       0.00000000
H        0.70000000       0.00000000       0.00000000
H       -0.20928000       0.81850000       0.00000000
3
Lattice="15.0 0.0 0.0 0.0 15.0 0.0 0.0 0.0 15.0" Properties=species:S:1:pos:R:3 energy=0.8592197870 pbc="T T T"
O        0.00000000       0.00000000       0.00000000
H        0.70000000       0.00000000       0.00000000
H       -0.21526000       0.84189000       0.00000000
3
Lattice="15.0 0.0 0.0 0.0 15.0 0.0 0.0 0.0 15.0" Properties=species:S:1:pos:R:3 energy=1.0045284216 pbc="T T T"
O        0.00000000       0.00000000       0.00000000
H        0.70000000       0.00000000       0.00000000
H       -0.22124000       0.86526000       0.00000000
3
Lattice="15.0 0.0 0.0 0.0 15.0 0.0 0.0 0.0 15.0" Properties=species:S:1:pos:R:3 energy=1.1338809489 pbc="T T T"
O        0.00000000       0.00000000       0.00000000
H        0.70000000       0.00000000       0.00000000
H       -0.22722000       0.88865000       0.00000000
3
Lattice="15.0 0.0 0.0 0.0 15.0 0.0 0.0 0.0 15.0" Properties=species:S:1:pos:R:3 energy=1.2427045669 pbc="T T T"
O        0.00000000       0.00000000       0.00000000
H        0.70000000       0.00000000       0.00000000
H       -0.23319000       0.91204000       0.00000000
3
Lattice="15.0 0.0 0.0 0.0 15.0 0.0 0.0 0.0 15.0" Properties=species:S:1:pos:R:3 energy=1.3269098963 pbc="T T T"
O        0.00000000       0.00000000       0.00000000
H        0.70000000       0.00000000       0.00000000
H       -0.23917000       0.93543000       0.00000000
3
Lattice="15.0 0.0 0.0 0.0 15.0 0.0 0.0 0.0 15.0" Properties=species:S:1:pos:R:3 energy=1.3829088435 pbc="T T T"
O        0.00000000       0.00000000       0.00000000
H        0.70000000       0.00000000       0.00000000
H       -0.24515000       0.95881000       0.00000000
3
Lattice="15.0 0.0 0.0 0.0 15.0 0.0 0.0 0.0 15.0" Properties=species:S:1:pos:R:3 energy=1.4077909044 pbc="T T T"
O        0.00000000       0.00000000       0.00000000
H        0.70000000       0.00000000       0.00000000
H       -0.25113000       0.98219000       0.00000000
3
Lattice="15.0 0.0 0.0 0.0 15.0 0.0 0.0 0.0 15.0" Properties=species:S:1:pos:R:3 energy=1.3986595416 pbc="T T T"
O        0.00000000       0.00000000       0.00000000
H        0.70000000       0.00000000       0.00000000
H       -0.25711000       1.00558000       0.00000000
3
Lattice="15.0 0.0 0.0 0.0 15.0 0.0 0.0 0.0 15.0" Properties=species:S:1:pos:R:3 energy=1.3527285568 pbc="T T T"
O        0.00000000       0.00000000       0.00000000
H        0.70000000       0.00000000       0.00000000
H       -0.26309000       1.02897000       0.00000000
3
Lattice="15.0 0.0 0.0 0.0 15.0 0.0 0.0 0.0 15.0" Properties=species:S:1:pos:R:3 energy=1.2675856584 pbc="T T T"
O        0.00000000       0.00000000       0.00000000
H        0.70000000       0.00000000       0.00000000
H       -0.26907000       1.05236000       0.00000000
3
Lattice="15.0 0.0 0.0 0.0 15.0 0.0 0.0 0.0 15.0" Properties=species:S:1:pos:R:3 energy=1.1409093770 pbc="T T T"
O        0.00000000       0.00000000       0.00000000
H        0.70000000       0.00000000       0.00000000
H       -0.27505000       1.07573000       0.00000000
3
Lattice="15.0 0.0 0.0 0.0 15.0 0.0 0.0 0.0 15.0" Properties=species:S:1:pos:R:3 energy=0.9698325987 pbc="T T T"
O        0.00000000       0.00000000       0.00000000
H        0.70000000       0.00000000       0.00000000
H       -0.28103000       1.09912000       0.00000000
3
Lattice="15.0 0.0 0.0 0.0 15.0 0.0 0.0 0.0 15.0" Properties=species:S:1:pos:R:3 energy=0.7519230745 pbc="T T T"
O        0.00000000       0.00000000       0.00000000
H        0.70000000       0.00000000       0.00000000
H       -0.28701000       1.12251000       0.00000000
3
Lattice="15.0 0.0 0.0 0.0 15.0 0.0 0.0 0.0 15.0" Properties=species:S:1:pos:R:3 energy=0.4846324195 pbc="T T T"
O        0.00000000       0.00000000       0.00000000
H        0.70000000       0.00000000       0.00000000
H       -0.29299000       1.14590000       0.00000000
3
Lattice="15.0 0.0 0.0 0.0 15.0 0.0 0.0 0.0 15.0" Properties=species:S:1:pos:R:3 energy=0.1651974727 pbc="T T T"
O        0.00000000       0.00000000       0.00000000
H        0.70000000       0.00000000       0.00000000
H       -0.29897000       1.16928000       0.00000000
3
Lattice="15.0 0.0 0.0 0.0 15.0 0.0 0.0 0.0 15.0" Properties=species:S:1:pos:R:3 energy=-0.2094215124 pbc="T T T"
O        0.00000000       0.00000000       0.00000000
H        0.70000000       0.00000000       0.00000000
H       -0.30495000       1.19266000       0.00000000
3
Lattice="15.0 0.0 0.0 0.0 15.0 0.0 0.0 0.0 15.0" Properties=species:S:1:pos:R:3 energy=-0.6423855510 pbc="T T T"
O        0.00000000       0.00000000       0.00000000
H        0.70000000       0.00000000       0.00000000
H       -0.31093000       1.21605000       0.00000000
3
Lattice="15.0 0.0 0.0 0.0 15.0 0.0 0.0 0.0 15.0" Properties=species:S:1:pos:R:3 energy=-1.1372795312 pbc="T T T"
O        0.00000000       0.00000000       0.00000000
H        0.70000000       0.00000000       0.00000000
H       -0.31691000       1.23944000       0.00000000
3
Lattice="15.0 0.0 0.0 0.0 15.0 0.0 0.0 0.0 15.0" Properties=species:S:1:pos:R:3 energy=-1.6981366186 pbc="T T T"
O        0.00000000       0.00000000       0.00000000
H        0.70000000       0.00000000       0.00000000
H       -0.32289000       1.26282000       0.00000000
3
Lattice="15.0 0.0 0.0 0.0 15.0 0.0 0.0 0.0 15.0" Properties=species:S:1:pos:R:3 energy=-2.3296899770 pbc="T T T"
O        0.00000000       0.00000000       0.00000000
H        0.70000000       0.00000000       0.00000000
H       -0.32887000       1.28621000       0.00000000
3
Lattice="15.0 0.0 0.0 0.0 15.0 0.0 0.0 0.0 15.0" Properties=species:S:1:pos:R:3 energy=-3.0356678904 pbc="T T T"
O        0.00000000       0.00000000       0.00000000
H        0.70000000       0.00000000       0.00000000
H       -0.33484000       1.30959000       0.00000000
3
Lattice="15.0 0.0 0.0 0.0 15.0 0.0 0.0 0.0 15.0" Properties=species:S:1:pos:R:3 energy=-3.8210186679 pbc="T T T"
O        0.00000000       0.00000000       0.00000000
H        0.70000000       0.00000000       0.00000000
H       -0.34082000       1.33298000       0.00000000
3
Lattice="15.0 0.0 0.0 0.0 15.0 0.0 0.0 0.0 15.0" Properties=species:S:1:pos:R:3 energy=-4.6896304988 pbc="T T T"
O        0.00000000       0.00000000       0.00000000
H        0.70000000       0.00000000       0.00000000
H       -0.34680000       1.35637000       0.00000000
3
Lattice="15.0 0.0 0.0 0.0 15.0 0.0 0.0 0.0 15.0" Properties=species:S:1:pos:R:3 energy=0.0365606710 pbc="T T T"
O        0.00000000       0.00000000       0.00000000
H        0.72414000       0.00000000       0.00000000
H       -0.17340000       0.67818000       0.00000000
3
Lattice="15.0 0.0 0.0 0.0 15.0 0.0 0.0 0.0 15.0" Properties=species:S:1:pos:R:3 energy=0.0034480320 pbc="T T T"
O        0.00000000       0.00000000       0.00000000
H        0.72414000       0.00000000       0.00000000
H       -0.17938000       0.70157000       0.00000000
3
Lattice="15.0 0.0 0.0 0.0 15.0 0.0 0.0 0.0 15.0" Properties=species:S:1:pos:R:3 energy=0.0293551016 pbc="T T T"
O        0.00000000       0.00000000       0.00000000
H        0.72414000       0.00000000       0.00000000
H       -0.18536000       0.72496000       0.00000000
3
Lattice="15.0 0.0 0.0 0.0 15.0 0.0 0.0 0.0 15.0" Properties=species:S:1:pos:R:3 energy=0.0977726549 pbc="T T T"
O        0.00000000       0.00000000       0.00000000
H        0.72414000       0.00000000       0.00000000
H       -0.19134000       0.74834000       0.00000000
3
Lattice="15.0 0.0 0.0 0.0 15.0 0.0 0.0 0.0 15.0" Properties=species:S:1:pos:R:3 energy=0.1949315770 pbc="T T T"
O        0.00000000       0.00000000       0.00000000
H        0.72414000       0.00000000       0.00000000
H       -0.19732000       0.77172000       0.00000000
3
Lattice="15.0 0.0 0.0 0.0 15.0 0.0 0.0 0.0 15.0" Properties=species:S:1:pos:R:3 energy=0.3098607984 pbc="T T T"
O        0.00000000       0.00000000       0.00000000
H        0.72414000       0.00000000       0.00000000
H       -0.20330000       0.79511000       0.00000000
3
Lattice="15.0 0.0 0.0 0.0 15.0 0.0 0.0 0.0 15.0" Properties=species:S:1:pos:R:3 energy=0.4332176869 pbc="T T T"
O        0.00000000       0.00000000       0.00000000
H        0.72414000       0.00000000       0.00000000
H       -0.20928000       0.81850000       0.00000000
3
Lattice="15.0 0.0 0.0 0.0 15.0 0.0 0.0 0.0 15.0" Properties=species:S:1:pos:R:3 energy=0.5569087634 pbc="T T T"
O        0.00000000       0.00000000       0.00000000
H        0.72414000       0.00000000       0.00000000
H       -0.21526000       0.84189000       0.00000000
3
Lattice="15.0 0.0 0.0 0.0 15.0 0.0 0.0 0.0 15.0" Properties=species:S:1:pos:R:3 energy=0.6743530364 pbc="T T T"
O        0.00000000       0.00000000       0.00000000
H        0.72414000       0.00000000       0.00000000
H       -0.22124000       0.86526000       0.00000000
3
Lattice="15.0 0.0 0.0 0.0 15.0 0.0 0.0 0.0 15.0" Properties=species:S:1:pos:R:3 energy=0.7802517250 pbc="T T T"
O        0.00000000       0.00000000       0.00000000
H        0.72414000       0.00000000       0.00000000
H       -0.22722000       0.88865000       0.00000000
3
Lattice="15.0 0.0 0.0 0.0 15.0 0.0 0.0 0.0 15.0" Properties=species:S:1:pos:R:3 energy=0.8695298550 pbc="T T T"
O        0.00000000       0.00000000       0.00000000
H        0.72414000       0.00000000       0.00000000
H       -0.23319000       0.91204000       0.00000000
3
Lattice="15.0 0.0 0.0 0.0 15.0 0.0 0.0 0.0 15.0" Properties=species:S:1:pos:R:3 energy=0.9381768682 pbc="T T T"
O        0.00000000       0.00000000       0.00000000
H        0.72414000       0.00000000       0.00000000
H       -0.23917000       0.93543000       0.00000000
3
Lattice="15.0 0.0 0.0 0.0 15.0 0.0 0.0 0.0 15.0" Properties=species:S:1:pos:R:3 energy=0.9827187878 pbc="T T T"
O        0.00000000       0.00000000       0.00000000
H        0.72414000       0.00000000       0.00000000
H       -0.24515000       0.95881000       0.00000000
3
Lattice="15.0 0.0 0.0 0.0 15.0 0.0 0.0 0.0 15.0" Properties=species:S:1:pos:R:3 energy=0.9998182829 pbc="T T T"
O        0.00000000       0.00000000       0.00000000
H        0.72414000       0.00000000       0.00000000
H       -0.25113000       0.98219000       0.00000000
3
Lattice="15.0 0.0 0.0 0.0 15.0 0.0 0.0 0.0 15.0" Properties=species:S:1:pos:R:3 energy=0.9866049336 pbc="T T T"
O        0.00000000       0.00000000       0.00000000
H        0.72414000       0.00000000       0.00000000
H       -0.25711000       1.00558000       0.00000000
3
Lattice="15.0 0.0 0.0 0.0 15.0 0.0 0.0 0.0 15.0" Properties=species:S:1:pos:R:3 energy=0.9405572170 pbc="T T T"
O        0.00000000       0.00000000       0.00000000
H        0.72414000       0.00000000       0.00000000
H       -0.26309000       1.02897000       0.00000000
3
Lattice="15.0 0.0 0.0 0.0 15.0 0.0 0.0 0.0 15.0" Properties=species:S:1:pos:R:3 energy=0.8589845067 pbc="T T T"
O        0.00000000       0.00000000       0.00000000
H        0.72414000       0.00000000       0.00000000
H       -0.26907000       1.05236000       0.00000000
3
Lattice="15.0 0.0 0.0 0.0 15.0 0.0 0.0 0.0 15.0" Properties=species:S:1:pos:R:3 energy=0.7395365727 pbc="T T T"
O        0.00000000       0.00000000       0.00000000
H        0.72414000       0.00000000       0.00000000
H       -0.27505000       1.07573000       0.00000000
3
Lattice="15.0 0.0 0.0 0.0 15.0 0.0 0.0 0.0 15.0" Properties=species:S:1:pos:R:3 energy=0.5797764103 pbc="T T T"
O        0.00000000       0.00000000       0.00000000
H        0.72414000       0.00000000       0.00000000
H       -0.28103000       1.09912000       0.00000000
3
Lattice="15.0 0.0 0.0 0.0 15.0 0.0 0.0 0.0 15.0" Properties=species:S:1:pos:R:3 energy=0.3771595389 pbc="T T T"
O        0.00000000       0.00000000       0.00000000
H        0.72414000       0.00000000       0.00000000
H       -0.28701000       1.12251000       0.00000000
3
Lattice="15.0 0.0 0.0 0.0 15.0 0.0 0.0 0.0 15.0" Properties=species:S:1:pos:R:3 energy=0.1290579399 pbc="T T T"
O        0.00000000       0.00000000       0.00000000
H        0.72414000       0.00000000       0.00000000
H       -0.29299000       1.14590000       0.00000000
3
Lattice="15.0 0.0 0.0 0.0 15.0 0.0 0.0 0.0 15.0" Properties=species:S:1:pos:R:3 energy=-0.1668694417 pbc="T T T"
O        0.00000000       0.00000000       0.00000000
H        0.72414000       0.00000000       0.00000000
H       -0.29897000       1.16928000       0.00000000
3
Lattice="15.0 0.0 0.0 0.0 15.0 0.0 0.0 0.0 15.0" Properties=species:S:1:pos:R:3 energy=-0.5135863939 pbc="T T T"
O        0.00000000       0.00000000       0.00000000
H        0.72414000       0.00000000       0.00000000
H       -0.30495000       1.19266000       0.00000000
3
Lattice="15.0 0.0 0.0 0.0 15.0 0.0 0.0 0.0 15.0" Properties=species:S:1:pos:R:3 energy=-0.9143304692 pbc="T T T"
O        0.00000000       0.00000000       0.00000000
H        0.72414000       0.00000000       0.00000000
H       -0.31093000       1.21605000       0.00000000
3
Lattice="15.0 0.0 0.0 0.0 15.0 0.0 0.0 0.0 15.0" Properties=species:S:1:pos:R:3 energy=-1.3719460175 pbc="T T T"
O        0.00000000       0.00000000       0.00000000
H        0.72414000       0.00000000       0.00000000
H       -0.31691000       1.23944000       0.00000000
3
Lattice="15.0 0.0 0.0 0.0 15.0 0.0 0.0 0.0 15.0" Properties=species:S:1:pos:R:3 energy=-1.8899138056 pbc="T T T"
O        0.00000000       0.00000000       0.00000000
H        0.72414000       0.00000000       0.00000000
H       -0.32289000       1.26282000       0.00000000
3
Lattice="15.0 0.0 0.0 0.0 15.0 0.0 0.0 0.0 15.0" Properties=species:S:1:pos:R:3 energy=-2.4730356422 pbc="T T T"
O        0.00000000       0.00000000       0.00000000
H        0.72414000       0.00000000       0.00000000
H       -0.32887000       1.28621000       0.00000000
3
Lattice="15.0 0.0 0.0 0.0 15.0 0.0 0.0 0.0 15.0" Properties=species:S:1:pos:R:3 energy=-3.1250916189 pbc="T T T"
O        0.00000000       0.00000000       0.00000000
H        0.72414000       0.00000000       0.00000000
H       -0.33484000       1.30959000       0.00000000
3
Lattice="15.0 0.0 0.0 0.0 15.0 0.0 0.0 0.0 15.0" Properties=species:S:1:pos:R:3 energy=-3.8510326201 pbc="T T T"
O        0.00000000       0.00000000       0.00000000
H        0.72414000       0.00000000       0.00000000
H       -0.34082000       1.33298000       0.00000000
3
Lattice="15.0 0.0 0.0 0.0 15.0 0.0 0.0 0.0 15.0" Properties=species:S:1:pos:R:3 energy=-4.6548854815 pbc="T T T"
O        0.00000000       0.00000000       0.00000000
H        0.72414000       0.00000000       0.00000000
H       -0.34680000       1.35637000       0.00000000
3
Lattice="15.0 0.0 0.0 0.0 15.0 0.0 0.0 0.0 15.0" Properties=species:S:1:pos:R:3 energy=0.1207035948 pbc="T T T"
O        0.00000000       0.00000000       0.00000000
H        0.74828000       0.00000000       0.00000000
H       -0.17340000       0.67818000       0.00000000
3
Lattice="15.0 0.0 0.0 0.0 15.0 0.0 0.0 0.0 15.0" Properties=species:S:1:pos:R:3 energy=0.0292444201 pbc="T T T"
O        0.00000000       0.00000000       0.00000000
H        0.74828000       0.00000000       0.00000000
H       -0.17938000       0.70157000       0.00000000
3
Lattice="15.0 0.0 0.0 0.0 15.0 0.0 0.0 0.0 15.0" Properties=species:S:1:pos:R:3 energy=0.0024091136 pbc="T T T"
O        0.00000000       0.00000000       0.00000000
H        0.74828000       0.00000000       0.00000000
H       -0.18536000       0.72496000       0.00000000
3
Lattice="15.0 0.0 0.0 0.0 15.0 0.0 0.0 0.0 15.0" Properties=species:S:1:pos:R:3 energy=0.0232712885 pbc="T T T"
O        0.00000000       0.00000000       0.00000000
H        0.74828000       0.00000000       0.00000000
H       -0.19134000       0.74834000       0.00000000
3
Lattice="15.0 0.0 0.0 0.0 15.0 0.0 0.0 0.0 15.0" Properties=species:S:1:pos:R:3 energy=0.0780487369 pbc="T T T"
O        0.00000000       0.00000000       0.00000000
H        0.74828000       0.00000000       0.00000000
H       -0.19732000       0.77172000       0.00000000
3
Lattice="15.0 0.0 0.0 0.0 15.0 0.0 0.0 0.0 15.0" Properties=species:S:1:pos:R:3 energy=0.1553441969 pbc="T T T"
O        0.00000000       0.00000000       0.00000000
H        0.74828000       0.00000000       0.00000000
H       -0.20330000       0.79511000       0.00000000
3
Lattice="15.0 0.0 0.0 0.0 15.0 0.0 0.0 0.0 15.0" Properties=species:S:1:pos:R:3 energy=0.2453547183 pbc="T T T"
O        0.00000000       0.00000000       0.00000000
H        0.74828000       0.00000000       0.00000000
H       -0.20928000       0.81850000       0.00000000
3
Lattice="15.0 0.0 0.0 0.0 15.0 0.0 0.0 0.0 15.0" Properties=species:S:1:pos:R:3 energy=0.3400148860 pbc="T T T"
O        0.00000000       0.00000000       0.00000000
H        0.74828000       0.00000000       0.00000000
H       -0.21526000       0.84189000       0.00000000
3
Lattice="15.0 0.0 0.0 0.0 15.0 0.0 0.0 0.0 15.0" Properties=species:S:1:pos:R:3 energy=0.4325460509 pbc="T T T"
O        0.00000000       0.00000000       0.00000000
H        0.74828000       0.00000000       0.00000000
H       -0.22124000       0.86526000       0.00000000
3
Lattice="15.0 0.0 0.0 0.0 15.0 0.0 0.0 0.0 15.0" Properties=species:S:1:pos:R:3 energy=0.5172616072 pbc="T T T"
O        0.00000000       0.00000000       0.00000000
H        0.74828000       0.00000000       0.00000000
H       -0.22722000       0.88865000       0.00000000
3
Lattice="15.0 0.0 0.0 0.0 15.0 0.0 0.0 0.0 15.0" Properties=species:S:1:pos:R:3 energy=0.5891771883 pbc="T T T"
O        0.00000000       0.00000000       0.00000000
H        0.74828000       0.00000000       0.00000000
H       -0.23319000       0.91204000       0.00000000
3
Lattice="15.0 0.0 0.0 0.0 15.0 0.0 0.0 0.0 15.0" Properties=species:S:1:pos:R:3 energy=0.6441649674 pbc="T T T"
O        0.00000000       0.00000000       0.00000000
H        0.74828000       0.00000000       0.00000000
H       -0.23917000       0.93543000       0.00000000
3
Lattice="15.0 0.0 0.0 0.0 15.0 0.0 0.0 0.0 15.0" Properties=species:S:1:pos:R:3 energy=0.6784854331 pbc="T T T"
O        0.00000000       0.00000000       0.00000000
H        0.74828000       0.00000000       0.00000000
H       -0.24515000       0.95881000       0.00000000
3
Lattice="15.0 0.0 0.0 0.0 15.0 0.0 0.0 0.0 15.0" Properties=species:S:1:pos:R:3 energy=0.6889185063 pbc="T T T"
O        0.00000000       0.00000000       0.00000000
H        0.74828000       0.00000000       0.00000000
H       -0.25113000       0.98219000       0.00000000
3
Lattice="15.0 0.0 0.0 0.0 15.0 0.0 0.0 0.0 15.0" Properties=species:S:1:pos:R:3 energy=0.6725534721 pbc="T T T"
O        0.00000000       0.00000000       0.00000000
H        0.74828000       0.00000000       0.00000000
H       -0.25711000       1.00558000       0.00000000
3
Lattice="15.0 0.0 0.0 0.0 15.0 0.0 0.0 0.0 15.0" Properties=species:S:1:pos:R:3 energy=0.6266770782 pbc="T T T"
O        0.00000000       0.00000000       0.00000000
H        0.74828000       0.00000000       0.00000000
H       -0.26309000       1.02897000       0.00000000
3
Lattice="15.0 0.0 0.0 0.0 15.0 0.0 0.0 0.0 15.0" Properties=species:S:1:pos:R:3 energy=0.5487949692 pbc="T T T"
O        0.00000000       0.00000000       0.00000000
H        0.74828000       0.00000000       0.00000000
H       -0.26907000       1.05236000       0.00000000
3
Lattice="15.0 0.0 0.0 0.0 15.0 0.0 0.0 0.0 15.0" Properties=species:S:1:pos:R:3 energy=0.4365728528 pbc="T T T"
O        0.00000000       0.00000000       0.00000000
H        0.74828000       0.00000000       0.00000000
H       -0.27505000       1.07573000       0.00000000
3
Lattice="15.0 0.0 0.0 0.0 15.0 0.0 0.0 0.0 15.0" Properties=species:S:1:pos:R:3 energy=0.2874528321 pbc="T T T"
O        0.00000000       0.00000000       0.00000000
H        0.74828000       0.00000000       0.00000000
H       -0.28103000       1.09912000       0.00000000
3
Lattice="15.0 0.0 0.0 0.0 15.0 0.0 0.0 0.0 15.0" Properties=species:S:1:pos:R:3 energy=0.0991957686 pbc="T T T"
O        0.00000000       0.00000000       0.00000000
H        0.74828000       0.00000000       0.00000000
H       -0.28701000       1.12251000       0.00000000
3
Lattice="15.0 0.0 0.0 0.0 15.0 0.0 0.0 0.0 15.0" Properties=species:S:1:pos:R:3 energy=-0.1307120243 pbc="T T T"
O        0.00000000       0.00000000       0.00000000
H        0.74828000       0.00000000       0.00000000
H       -0.29299000       1.14590000       0.00000000
3
Lattice="15.0 0.0 0.0 0.0 15.0 0.0 0.0 0.0 15.0" Properties=species:S:1:pos:R:3 energy=-0.4047244819 pbc="T T T"
O        0.00000000       0.00000000       0.00000000
H        0.74828000       0.00000000       0.00000000
H       -0.29897000       1.16928000       0.00000000
3
Lattice="15.0 0.0 0.0 0.0 15.0 0.0 0.0 0.0 15.0" Properties=species:S:1:pos:R:3 energy=-0.7254910136 pbc="T T T"
O        0.00000000       0.00000000       0.00000000
H        0.74828000       0.00000000       0.00000000
H       -0.30495000       1.19266000       0.00000000
3
Lattice="15.0 0.0 0.0 0.0 15.0 0.0 0.0 0.0 15.0" Properties=species:S:1:pos:R:3 energy=-1.0960175904 pbc="T T T"
O        0.00000000       0.00000000       0.00000000
H        0.74828000       0.00000000       0.00000000
H       -0.31093000       1.21605000       0.00000000
3
Lattice="15.0 0.0 0.0 0.0 15.0 0.0 0.0 0.0 15.0" Properties=species:S:1:pos:R:3 energy=-1.5192130106 pbc="T T T"
O        0.00000000       0.00000000       0.00000000
H        0.74828000       0.00000000       0.00000000
H       -0.31691000       1.23944000       0.00000000
3
Lattice="15.0 0.0 0.0 0.0 15.0 0.0 0.0 0.0 15.0" Properties=species:S:1:pos:R:3 energy=-1.9979452979 pbc="T T T"
O        0.00000000       0.00000000       0.00000000
H        0.74828000       0.00000000       0.00000000
H       -0.32289000       1.26282000       0.00000000
3
Lattice="15.0 0.0 0.0 0.0 15.0 0.0 0.0 0.0 15.0" Properties=species:S:1:pos:R:3 energy=-2.5363237071 pbc="T T T"
O        0.00000000       0.00000000       0.00000000
H        0.74828000       0.00000000       0.00000000
H       -0.32887000       1.28621000       0.00000000
3
Lattice="15.0 0.0 0.0 0.0 15.0 0.0 0.0 0.0 15.0" Properties=species:S:1:pos:R:3 energy=-3.1382033202 pbc="T T T"
O        0.00000000       0.00000000       0.00000000
H        0.74828000       0.00000000       0.00000000
H       -0.33484000       1.30959000       0.00000000
3
Lattice="15.0 0.0 0.0 0.0 15.0 0.0 0.0 0.0 15.0" Properties=species:S:1:pos:R:3 energy=-3.8085976141 pbc="T T T"
O        0.00000000       0.00000000       0.00000000
H        0.74828000       0.00000000       0.00000000
H       -0.34082000       1.33298000       0.00000000
3
Lattice="15.0 0.0 0.0 0.0 15.0 0.0 0.0 0.0 15.0" Properties=species:S:1:pos:R:3 energy=-4.5515686642 pbc="T T T"
O        0.00000000       0.00000000       0.00000000
H        0.74828000       0.00000000       0.00000000
H       -0.34680000       1.35637000       0.00000000
3
Lattice="15.0 0.0 0.0 0.0 15.0 0.0 0.0 0.0 15.0" Properties=species:S:1:pos:R:3 energy=0.2415056243 pbc="T T T"
O        0.00000000       0.00000000       0.00000000
H        0.77241000       0.00000000       0.00000000
H       -0.17340000       0.67818000       0.00000000
3
Lattice="15.0 0.0 0.0 0.0 15.0 0.0 0.0 0.0 15.0" Properties=species:S:1:pos:R:3 energy=0.0975735956 pbc="T T T"
O        0.00000000       0.00000000       0.00000000
H        0.77241000       0.00000000       0.00000000
H       -0.17938000       0.70157000       0.00000000
3
Lattice="15.0 0.0 0.0 0.0 15.0 0.0 0.0 0.0 15.0" Properties=species:S:1:pos:R:3 energy=0.0231797450 pbc="T T T"
O        0.00000000       0.00000000       0.00000000
H        0.77241000       0.00000000       0.00000000
H       -0.18536000       0.72496000       0.00000000
3
Lattice="15.0 0.0 0.0 0.0 15.0 0.0 0.0 0.0 15.0" Properties=species:S:1:pos:R:3 energy=0.0014218879 pbc="T T T"
O        0.00000000       0.00000000       0.00000000
H        0.77241000       0.00000000       0.00000000
H       -0.19134000       0.74834000       0.00000000
3
Lattice="15.0 0.0 0.0 0.0 15.0 0.0 0.0 0.0 15.0" Properties=species:S:1:pos:R:3 energy=0.0182639579 pbc="T T T"
O        0.00000000       0.00000000       0.00000000
H        0.77241000       0.00000000       0.00000000
H       -0.19732000       0.77172000       0.00000000
3
Lattice="15.0 0.0 0.0 0.0 15.0 0.0 0.0 0.0 15.0" Properties=species:S:1:pos:R:3 energy=0.0616678713 pbc="T T T"
O        0.00000000       0.00000000       0.00000000
H        0.77241000       0.00000000       0.00000000
H       -0.20330000       0.79511000       0.00000000
3
Lattice="15.0 0.0 0.0 0.0 15.0 0.0 0.0 0.0 15.0" Properties=species:S:1:pos:R:3 energy=0.1218096231 pbc="T T T"
O        0.00000000       0.00000000       0.00000000
H        0.77241000       0.00000000       0.00000000
H       -0.20928000       0.81850000       0.00000000
3
Lattice="15.0 0.0 0.0 0.0 15.0 0.0 0.0 0.0 15.0" Properties=species:S:1:pos:R:3 energy=0.1905970885 pbc="T T T"
O        0.00000000       0.00000000       0.00000000
H        0.77241000       0.00000000       0.00000000
H       -0.21526000       0.84189000       0.00000000
3
Lattice="15.0 0.0 0.0 0.0 15.0 0.0 0.0 0.0 15.0" Properties=species:S:1:pos:R:3 energy=0.2608237165 pbc="T T T"
O        0.00000000       0.00000000       0.00000000
H        0.77241000       0.00000000       0.00000000
H       -0.22124000       0.86526000       0.00000000
3
Lattice="15.0 0.0 0.0 0.0 15.0 0.0 0.0 0.0 15.0" Properties=species:S:1:pos:R:3 energy=0.3266982678 pbc="T T T"
O        0.00000000       0.00000000       0.00000000
H        0.77241000       0.00000000       0.00000000
H       -0.22722000       0.88865000       0.00000000
3
Lattice="15.0 0.0 0.0 0.0 15.0 0.0 0.0 0.0 15.0" Properties=species:S:1:pos:R:3 energy=0.3833244234 pbc="T T T"
O        0.00000000       0.00000000       0.00000000
H        0.77241000       0.00000000       0.00000000
H       -0.23319000       0.91204000       0.00000000
3
Lattice="15.0 0.0 0.0 0.0 15.0 0.0 0.0 0.0 15.0" Properties=species:S:1:pos:R:3 energy=0.4262822031 pbc="T T T"
O        0.00000000       0.00000000       0.00000000
H        0.77241000       0.00000000       0.00000000
H       -0.23917000       0.93543000       0.00000000
3
Lattice="15.0 0.0 0.0 0.0 15.0 0.0 0.0 0.0 15.0" Properties=species:S:1:pos:R:3 energy=0.4517399005 pbc="T T T"
O        0.00000000       0.00000000       0.00000000
H        0.77241000       0.00000000       0.00000000
H       -0.24515000       0.95881000       0.00000000
3
Lattice="15.0 0.0 0.0 0.0 15.0 0.0 0.0 0.0 15.0" Properties=species:S:1:pos:R:3 energy=0.4565808889 pbc="T T T"
O        0.00000000       0.00000000       0.00000000
H        0.77241000       0.00000000       0.00000000
H       -0.25113000       0.98219000       0.00000000
3
Lattice="15.0 0.0 0.0 0.0 15.0 0.0 0.0 0.0 15.0" Properties=species:S:1:pos:R:3 energy=0.4377960585 pbc="T T T"
O        0.00000000       0.00000000       0.00000000
H        0.77241000       0.00000000       0.00000000
H       -0.25711000       1.00558000       0.00000000
3
Lattice="15.0 0.0 0.0 0.0 15.0 0.0 0.0 0.0 15.0" Properties=species:S:1:pos:R:3 energy=0.3925703090 pbc="T T T"
O        0.00000000       0.00000000       0.00000000
H        0.77241000       0.00000000       0.00000000
H       -0.26309000       1.02897000       0.00000000
3
Lattice="15.0 0.0 0.0 0.0 15.0 0.0 0.0 0.0 15.0" Properties=species:S:1:pos:R:3 energy=0.3185159094 pbc="T T T"
O        0.00000000       0.00000000       0.00000000
H        0.77241000       0.00000000       0.00000000
H       -0.26907000       1.05236000       0.00000000
3
Lattice="15.0 0.0 0.0 0.0 15.0 0.0 0.0 0.0 15.0" Properties=species:S:1:pos:R:3 energy=0.2133765874 pbc="T T T"
O        0.00000000       0.00000000       0.00000000
H        0.77241000       0.00000000       0.00000000
H       -0.27505000       1.07573000       0.00000000
3
Lattice="15.0 0.0 0.0 0.0 15.0 0.0 0.0 0.0 15.0" Properties=species:S:1:pos:R:3 energy=0.0745211931 pbc="T T T"