3
Lattice="15.0 0.0 0.0 0.0 15.0 0.0 0.0 0.0 15.0" Properties=species:S:1:pos:R:3:forces:R:3 energy=0.0583613807 pbc="T T T"
O        0.00000000       0.00000000       0.00000000       1.24034215       0.93381812       0.00000000
H        0.97554939       0.00000000       0.00000000      -0.55143566      -0.70177574       0.00000000
H       -0.09012407       0.96341710       0.00000000      -0.68890649      -0.23204238       0.00000000
