3
Lattice="15.0 0.0 0.0 0.0 15.0 0.0 0.0 0.0 15.0" Properties=species:S:1:pos:R:3:forces:R:3 energy=0.8660452092 pbc="T T T"
O        0.00000000       0.00000000       0.00000000      -4.52710725      -2.61980901       0.00000000
H        0.90141833       0.00000000       0.00000000       2.77614141       1.77856711       0.00000000
H       -0.79532409       0.53351870       0.00000000       1.75096584       0.84124190       0.00000000
