3
Lattice="15.0 0.0 0.0 0.0 15.0 0.0 0.0 0.0 15.0" Properties=species:S:1:pos:R:3:forces:R:3 energy=0.0697058538 pbc="T T T"
O        0.00000000       0.00000000       0.00000000      -2.57559229      -0.63858859       0.00000000
H        0.92102114       0.00000000       0.00000000       2.08002745       0.52221809       0.00000000
H       -0.35694496       0.88673775       0.00000000       0.49556484       0.11637050       0.00000000
