3
Lattice="15.0 0.0 0.0 0.0 15.0 0.0 0.0 0.0 15.0" Properties=species:S:1:pos:R:3:forces:R:3 energy=0.0653151062 pbc="T T T"
O        0.00000000       0.00000000       0.00000000       1.23413195       1.56336989       0.00000000
H        0.97795206       0.00000000       0.00000000      -0.66867143      -0.65293915       0.00000000
H       -0.09429683       0.97742002       0.00000000      -0.56546052      -0.91043073       0.00000000
