3
Lattice="15.0 0.0 0.0 0.0 15.0 0.0 0.0 0.0 15.0" Properties=species:S:1:pos:R:3:forces:R:3 energy=0.0118861865 pbc="T T T"
O        0.00000000       0.00000000       0.00000000       0.95679644      -0.08792827       0.00000000
H        0.97370664       0.00000000       0.00000000      -0.65636968      -0.22817831       0.00000000
H       -0.18620057       0.93546251       0.00000000      -0.30042676       0.31610659       0.00000000
