3
Lattice="15.0 0.0 0.0 0.0 15.0 0.0 0.0 0.0 15.0" Properties=species:S:1:pos:R:3:forces:R:3 energy=0.0282607251 pbc="T T T"
O        0.00000000       0.00000000       0.00000000       0.73214341       1.17115748       0.00000000
H        0.97110363       0.00000000       0.00000000      -0.44722129      -0.40109393       0.00000000
H       -0.14862062       0.96537419       0.00000000      -0.28492213      -0.77006350       0.00000000
