3
Lattice="15.0 0.0 0.0 0.0 15.0 0.0 0.0 0.0 15.0" Properties=species:S:1:pos:R:3:forces:R:3 energy=0.876467249 pbc="T T T"
O        0.00000000       0.00000000       0.00000000       5.30107472       1.17407306       0.00000000
H        1.19123879       0.00000000       0.00000000      -5.68230435       0.11102291       0.00000000
H       -0.18599041       0.97387576       0.00000000       0.38122968      -1.28509597       0.00000000
