3
Lattice="15.0 0.0 0.0 0.0 15.0 0.0 0.0 0.0 15.0" Properties=species:S:1:pos:R:3:forces:R:3 energy=1.260365382 pbc="T T T"
O        0.00000000       0.00000000       0.00000000       4.69680456       4.66252660       0.00000000
H        1.18133052       0.00000000       0.00000000      -5.49537827       0.08140127       0.00000000
H       -0.16672024       1.11081871       0.00000000       0.79857371      -4.74392787       0.00000000
