3
Lattice="15.0 0.0 0.0 0.0 15.0 0.0 0.0 0.0 15.0" Properties=species:S:1:pos:R:3:forces:R:3 energy=0.0326048977 pbc="T T T"
O        0.00000000       0.00000000       0.00000000       1.55266139       0.58998484       0.00000000
H        0.99336205       0.00000000       0.00000000      -1.54772811      -0.10360687       0.00000000
H       -0.20198203       0.94855863       0.00000000      -0.00493328      -0.48637797       0.00000000
