3
Lattice="15.0 0.0 0.0 0.0 15.0 0.0 0.0 0.0 15.0" Properties=species:S:1:pos:R:3:forces:R:3 energy=1.2606135117 pbc="T T T"
O        0.00000000       0.00000000       0.00000000       6.44688507     -15.14001589       0.00000000
H        0.92716549       0.00000000       0.00000000       1.19791872       0.93200713       0.00000000
H       -0.42078948       0.66901073       0.00000000      -7.64480379      14.20800875       0.00000000
