3
Lattice="15.0 0.0 0.0 0.0 15.0 0.0 0.0 0.0 15.0" Properties=species:S:1:pos:R:3:forces:R:3 energy=0.1794842993 pbc="T T T"
O        0.00000000       0.00000000       0.00000000      -2.94929537       2.57304972       0.00000000
H        0.90784794       0.00000000       0.00000000       3.50807395      -0.80159589       0.00000000
H       -0.09609833       0.99769997       0.00000000      -0.55877858      -1.77145389       0.00000000
