3
Lattice="15.0 0.0 0.0 0.0 15.0 0.0 0.0 0.0 15.0" Properties=species:S:1:pos:R:3:forces:R:3 energy=0.0305475373 pbc="T T T"
O        0.00000000       0.00000000       0.00000000       0.79534820      -0.93703287       0.00000000
H        0.96422965       0.00000000       0.00000000      -0.15204853      -0.39329844       0.00000000
H       -0.16099117       0.92243421       0.00000000      -0.64329967       1.33033131       0.00000000
