3
Lattice="15.0 0.0 0.0 0.0 15.0 0.0 0.0 0.0 15.0" Properties=species:S:1:pos:R:3:forces:R:3 energy=0.037807682 pbc="T T T"
O        0.00000000       0.00000000       0.00000000       0.08486177       0.94879310       0.00000000
H        0.97415970       0.00000000       0.00000000      -0.83897933       0.33089851       0.00000000
H       -0.30207022       0.94004531       0.00000000       0.75411756      -1.27969156       0.00000000
