3
Lattice="15.0 0.0 0.0 0.0 15.0 0.0 0.0 0.0 15.0" Properties=species:S:1:pos:R:3:forces:R:3 energy=1.311623078 pbc="T T T"
O        0.00000000       0.00000000       0.00000000     -11.13728707      -7.17835794       0.00000000
H        0.81117419       0.00000000       0.00000000      13.57800159      -1.28142870       0.00000000
H       -0.11985975       0.84133139       0.00000000      -2.44071452       8.45978659       0.00000000
