3
Lattice="15.0 0.0 0.0 0.0 15.0 0.0 0.0 0.0 15.0" Properties=species:S:1:pos:R:3:forces:R:3 energy=0.6252656847 pbc="T T T"
O        0.00000000       0.00000000       0.00000000      -3.16695648      -5.85993557       0.00000000
H        0.89029975       0.00000000       0.00000000       5.06723658      -1.59657313       0.00000000
H       -0.02933635       0.86312298       0.00000000      -1.90028010       7.45650870       0.00000000
