3
Lattice="15.0 0.0 0.0 0.0 15.0 0.0 0.0 0.0 15.0" Properties=species:S:1:pos:R:3:forces:R:3 energy=1.0270305226 pbc="T T T"
O        0.00000000       0.00000000       0.00000000       6.31210695      -5.24830568       0.00000000
H        1.09018250       0.00000000       0.00000000      -5.22327824       1.55379078       0.00000000
H       -0.64370180       0.62842794       0.00000000      -1.08882871       3.69451490       0.00000000
