3
Lattice="15.0 0.0 0.0 0.0 15.0 0.0 0.0 0.0 15.0" Properties=species:S:1:pos:R:3:forces:R:3 energy=1.2182962364 pbc="T T T"
O        0.00000000       0.00000000       0.00000000       6.64633397       3.86271157       0.00000000
H        1.19961191       0.00000000       0.00000000      -5.22779058      -0.92962202       0.00000000
H        0.12651658       1.04774385       0.00000000      -1.41854338      -2.93308954       0.00000000
