3
Lattice="15.0 0.0 0.0 0.0 15.0 0.0 0.0 0.0 15.0" Properties=species:S:1:pos:R:3:forces:R:3 energy=1.2744896914 pbc="T T T"
O        0.00000000       0.00000000       0.00000000     -12.21781111       3.25944897       0.00000000
H        0.80906631       0.00000000       0.00000000      14.37047792      -2.54846030       0.00000000
H        0.10410323       0.99220629       0.00000000      -2.15266686      -0.71098868       0.00000000
