3
Lattice="15.0 0.0 0.0 0.0 15.0 0.0 0.0 0.0 15.0" Properties=species:S:1:pos:R:3:forces:R:3 energy=0.1514118253 pbc="T T T"
O        0.00000000       0.00000000       0.00000000       1.51200956       3.07779089       0.00000000
H        0.98894094       0.00000000       0.00000000      -1.13528291      -0.60456172       0.00000000
H       -0.08647820       1.01929465       0.00000000      -0.37672665      -2.47322917       0.00000000
