3
Lattice="15.0 0.0 0.0 0.0 15.0 0.0 0.0 0.0 15.0" Properties=species:S:1:pos:R:3:forces:R:3 energy=1.5877877501 pbc="T T T"
O        0.00000000       0.00000000       0.00000000       6.55065890     -10.83105661       0.00000000
H        1.19174370       0.00000000       0.00000000      -5.41074214      -0.70739016       0.00000000
H       -0.00871881       0.82780537       0.00000000      -1.13991676      11.53844676       0.00000000
