3
Lattice="15.0 0.0 0.0 0.0 15.0 0.0 0.0 0.0 15.0" Properties=species:S:1:pos:R:3:forces:R:3 energy=0.1352268603 pbc="T T T"
O        0.00000000       0.00000000       0.00000000       0.43021529       1.68429278       0.00000000
H        0.99500140       0.00000000       0.00000000      -1.78472603       0.53113838       0.00000000
H       -0.34476655       0.95406406       0.00000000       1.35451075      -2.21543117       0.00000000
