3
Lattice="15.0 0.0 0.0 0.0 15.0 0.0 0.0 0.0 15.0" Properties=species:S:1:pos:R:3:forces:R:3 energy=0.914926143 pbc="T T T"
O        0.00000000       0.00000000       0.00000000       1.93789500       1.47226846       0.00000000
H        1.11254373       0.00000000       0.00000000      -5.10767990       1.22798012       0.00000000
H       -0.55369116       0.90267494       0.00000000       3.16978490      -2.70024858       0.00000000
