3
Lattice="15.0 0.0 0.0 0.0 15.0 0.0 0.0 0.0 15.0" Properties=species:S:1:pos:R:3:forces:R:3 energy=0.4170220525 pbc="T T T"
O        0.00000000       0.00000000       0.00000000       4.50669351      -4.81251876       0.00000000
H        1.03862012       0.00000000       0.00000000      -3.66692438       1.01975229       0.00000000
H       -0.45113578       0.77630555       0.00000000      -0.83976912       3.79276647       0.00000000
