3
Lattice="15.0 0.0 0.0 0.0 15.0 0.0 0.0 0.0 15.0" Properties=species:S:1:pos:R:3:forces:R:3 energy=0.0119989042 pbc="T T T"
O        0.00000000       0.00000000       0.00000000      -1.17704217       0.32480463       0.00000000
H        0.94202038       0.00000000       0.00000000       0.89756261       0.14147466       0.00000000
H       -0.27108970       0.92913947       0.00000000       0.27947956      -0.46627929       0.00000000
