3
Lattice="15.0 0.0 0.0 0.0 15.0 0.0 0.0 0.0 15.0" Properties=species:S:1:pos:R:3:forces:R:3 energy=0.2092536019 pbc="T T T"
O        0.00000000       0.00000000       0.00000000      -3.58673195      -1.65592471       0.00000000
H        0.89214813       0.00000000       0.00000000       4.60414397      -0.63949331       0.00000000
H       -0.15381542       0.90778702       0.00000000      -1.01741202       2.29541802       0.00000000
