3
Lattice="15.0 0.0 0.0 0.0 15.0 0.0 0.0 0.0 15.0" Properties=species:S:1:pos:R:3:forces:R:3 energy=0.8932379636 pbc="T T T"
O        0.00000000       0.00000000       0.00000000       4.26310497       3.97980619       0.00000000
H        1.01266538       0.00000000       0.00000000      -1.13147773      -2.64547038       0.00000000
H        0.33088963       0.99644495       0.00000000      -3.13162724      -1.33433581       0.00000000
