3
Lattice="15.0 0.0 0.0 0.0 15.0 0.0 0.0 0.0 15.0" Properties=species:S:1:pos:R:3:forces:R:3 energy=1.284716786 pbc="T T T"
O        0.00000000       0.00000000       0.00000000     -13.01249335      -6.13849812       0.00000000
H        0.79675104       0.00000000       0.00000000      15.24708449       0.24184625       0.00000000
H       -0.33584779       0.80000597       0.00000000      -2.23459114       5.89665187       0.00000000
