3
Lattice="15.0 0.0 0.0 0.0 15.0 0.0 0.0 0.0 15.0" Properties=species:S:1:pos:R:3:forces:R:3 energy=0.4378766438 pbc="T T T"
O        0.00000000       0.00000000       0.00000000       0.07566647       0.69442279       0.00000000
H        1.01763821       0.00000000       0.00000000      -2.88363245       1.28953334       0.00000000
H       -0.55798889       0.86158590       0.00000000       2.80796598      -1.98395613       0.00000000
