3
Lattice="15.0 0.0 0.0 0.0 15.0 0.0 0.0 0.0 15.0" Properties=species:S:1:pos:R:3:forces:R:3 energy=0.0141353735 pbc="T T T"
O        0.00000000       0.00000000       0.00000000      -0.37718590      -0.64506402       0.00000000
H        0.94596186       0.00000000       0.00000000       0.75712390      -0.18793102       0.00000000
H       -0.20652765       0.92070836       0.00000000      -0.37993801       0.83299509       0.00000000
