3
Lattice="15.0 0.0 0.0 0.0 15.0 0.0 0.0 0.0 15.0" Properties=species:S:1:pos:R:3:forces:R:3 energy=0.1504100082 pbc="T T T"
O        0.00000000       0.00000000       0.00000000      -4.59316617       0.02566811       0.00000000
H        0.88923906       0.00000000       0.00000000       4.70018752      -0.09282859       0.00000000
H       -0.24409874       0.92449423       0.00000000      -0.10702135       0.06716054       0.00000000
