3
Lattice="15.0 0.0 0.0 0.0 15.0 0.0 0.0 0.0 15.0" Properties=species:S:1:pos:R:3:forces:R:3 energy=0.0002414684 pbc="T T T"
O        0.00000000       0.00000000       0.00000000      -0.08678182      -0.10934346       0.00000000
H        0.95667154       0.00000000       0.00000000       0.11468056       0.00016733       0.00000000
H       -0.23823752       0.92655754       0.00000000      -0.02789874       0.10917614       0.00000000
