3
Lattice="15.0 0.0 0.0 0.0 15.0 0.0 0.0 0.0 15.0" Properties=species:S:1:pos:R:3:forces:R:3 energy=0.0957064147 pbc="T T T"
O        0.00000000       0.00000000       0.00000000       1.69171438       2.05400032       0.00000000
H        1.00376310       0.00000000       0.00000000      -1.91020158      -0.13880734       0.00000000
H       -0.18532760       0.98682393       0.00000000       0.21848720      -1.91519297       0.00000000
