3
Lattice="15.0 0.0 0.0 0.0 15.0 0.0 0.0 0.0 15.0" Properties=species:S:1:pos:R:3:forces:R:3 energy=0.4957152583 pbc="T T T"
O        0.00000000       0.00000000       0.00000000       4.30573630       1.91411846       0.00000000
H        1.03796694       0.00000000       0.00000000      -2.33640163      -1.82761386       0.00000000
H        0.16520797       0.97052780       0.00000000      -1.96933462      -0.08650460       0.00000000
