3
Lattice="15.0 0.0 0.0 0.0 15.0 0.0 0.0 0.0 15.0" Properties=species:S:1:pos:R:3:forces:R:3 energy=0.1604923927 pbc="T T T"
O        0.00000000       0.00000000       0.00000000      -0.44939937      -3.98665566       0.00000000
H        0.93147646       0.00000000       0.00000000       1.26763308       0.63002362       0.00000000
H       -0.37477714       0.82022626       0.00000000      -0.81823366       3.35663199       0.00000000
