3
Lattice="15.0 0.0 0.0 0.0 15.0 0.0 0.0 0.0 15.0" Properties=species:S:1:pos:R:3:forces:R:3 energy=0.1702753268 pbc="T T T"
O        0.00000000       0.00000000       0.00000000      -3.31832639       2.90399780       0.00000000
H        0.91047744       0.00000000       0.00000000       3.18598378      -0.34696776       0.00000000
H       -0.17559195       1.00562904       0.00000000       0.13234261      -2.55703005       0.00000000
