3
Lattice="15.0 0.0 0.0 0.0 15.0 0.0 0.0 0.0 15.0" Properties=species:S:1:pos:R:3:forces:R:3 energy=0.2179913085 pbc="T T T"
O        0.00000000       0.00000000       0.00000000       2.49188474       2.73093672       0.00000000
H        1.03291000       0.00000000       0.00000000      -2.90757735      -0.07291457       0.00000000
H       -0.18615332       1.00912428       0.00000000       0.41569261      -2.65802215       0.00000000
