3
Lattice="15.0 0.0 0.0 0.0 15.0 0.0 0.0 0.0 15.0" Properties=species:S:1:pos:R:3:forces:R:3 energy=0.3716772601 pbc="T T T"
O        0.00000000       0.00000000       0.00000000       3.12286348      -7.17608642       0.00000000
H        0.96648825       0.00000000       0.00000000      -0.81753385       0.75343226       0.00000000
H       -0.38994580       0.77052044       0.00000000      -2.30532962       6.42265416       0.00000000
