3
Lattice="15.0 0.0 0.0 0.0 15.0 0.0 0.0 0.0 15.0" Properties=species:S:1:pos:R:3:forces:R:3 energy=0.2481969157 pbc="T T T"
O        0.00000000       0.00000000       0.00000000      -3.56866742      -0.28104099       0.00000000
H        0.92534335       0.00000000       0.00000000       1.58130905       1.23814246       0.00000000
H       -0.53178361       0.83260162       0.00000000       1.98735837      -0.95710152       0.00000000
