3
Lattice="15.0 0.0 0.0 0.0 15.0 0.0 0.0 0.0 15.0" Properties=species:S:1:pos:R:3:forces:R:3 energy=0.2199654755 pbc="T T T"
O        0.00000000       0.00000000       0.00000000      -1.00480261      -3.76799491       0.00000000
H        0.92674952       0.00000000       0.00000000       1.43275933       1.01019195       0.00000000
H       -0.46125977       0.78481933       0.00000000      -0.42795672       2.75780296       0.00000000
