3
Lattice="15.0 0.0 0.0 0.0 15.0 0.0 0.0 0.0 15.0" Properties=species:S:1:pos:R:3:forces:R:3 energy=0.1865041349 pbc="T T T"
O        0.00000000       0.00000000       0.00000000       2.80987132      -2.98246226       0.00000000
H        1.00029971       0.00000000       0.00000000      -1.64179881      -0.71247056       0.00000000
H       -0.09141787       0.89931655       0.00000000      -1.16807251       3.69493281       0.00000000
