3
Lattice="15.0 0.0 0.0 0.0 15.0 0.0 0.0 0.0 15.0" Properties=species:S:1:pos:R:3:forces:R:3 energy=0.0702543863 pbc="T T T"
O        0.00000000       0.00000000       0.00000000       1.53260853      -1.75205995       0.00000000
H        0.97530091       0.00000000       0.00000000      -0.65834655      -0.49660413       0.00000000
H       -0.13919683       0.91202105       0.00000000      -0.87426198       2.24866403       0.00000000
