3
Lattice="15.0 0.0 0.0 0.0 15.0 0.0 0.0 0.0 15.0" Properties=species:S:1:pos:R:3:forces:R:3 energy=0.0220839473 pbc="T T T"
O        0.00000000       0.00000000       0.00000000       1.23590282      -1.08588583       0.00000000
H        0.98026746       0.00000000       0.00000000      -1.10553117       0.13147322       0.00000000
H       -0.25867116       0.90510564       0.00000000      -0.13037160       0.95441261       0.00000000
