3
Lattice="15.0 0.0 0.0 0.0 15.0 0.0 0.0 0.0 15.0" Properties=species:S:1:pos:R:3:forces:R:3 energy=0.035914722 pbc="T T T"
O        0.00000000       0.00000000       0.00000000       0.15849496       1.67025569       0.00000000
H        0.97012101       0.00000000       0.00000000      -0.51408065      -0.02424387       0.00000000
H       -0.22394248       0.97049046       0.00000000       0.35558569      -1.64601182       0.00000000
