3
Lattice="15.0 0.0 0.0 0.0 15.0 0.0 0.0 0.0 15.0" Properties=species:S:1:pos:R:3:forces:R:3 energy=0.4270490809 pbc="T T T"
O        0.00000000       0.00000000       0.00000000       0.86791547       0.30826318       0.00000000
H        1.03199757       0.00000000       0.00000000      -3.36285118       1.24732655       0.00000000
H       -0.54209087       0.85393342       0.00000000       2.49493572      -1.55558973       0.00000000
