3
Lattice="15.0 0.0 0.0 0.0 15.0 0.0 0.0 0.0 15.0" Properties=species:S:1:pos:R:3:forces:R:3 energy=0.598097788 pbc="T T T"
O        0.00000000       0.00000000       0.00000000       5.64826858      -3.42999475       0.00000000
H        1.11705138       0.00000000       0.00000000      -4.70913666      -0.47103424       0.00000000
H       -0.08139243       0.89836550       0.00000000      -0.93913187       3.90102899       0.00000000
