3
Lattice="15.0 0.0 0.0 0.0 15.0 0.0 0.0 0.0 15.0" Properties=species:S:1:pos:R:3:forces:R:3 energy=0.7808030555 pbc="T T T"
O        0.00000000       0.00000000       0.00000000       5.36946733      -7.39550154       0.00000000
H        0.98069235       0.00000000       0.00000000      -1.94498739       1.53975579       0.00000000
H       -0.61257783       0.60653683       0.00000000      -3.42447994       5.85574570       0.00000000
