       3
Lattice="15.0 0.0 0.0 0.0 15.0 0.0 0.0 0.0 15.0" Properties=species:S:1:pos:R:3:forces:R:3 energy=        0.4619613272 pbc="T T T"
       O     0.0090781300     0.0082641500     0.0000000000     -0.845632475      1.174630374     -0.000000000
       H     0.9912130600    -0.1630639100     0.0000000000     -1.846034789      1.696134056     -0.000000000
       H    -0.4139801800     0.9608543000     0.0000000000      2.691667264     -2.870764482     -0.000000000
