       3
Lattice="15.0 0.0 0.0 0.0 15.0 0.0 0.0 0.0 15.0" Properties=species:S:1:pos:R:3:forces:R:3 energy=        1.8252568407 pbc="T T T"
       O     0.0132703100    -0.0119566700     0.0000000000     -4.694601590      4.595794923     -0.000000000
       H     0.9401181000    -0.1113365100     0.0000000000      1.775733545      1.032665149     -0.000000000
       H    -0.4294166000     1.2300457500     0.0000000000      2.918867993     -5.628460072     -0.000000000
