       3
Lattice="15.0 0.0 0.0 0.0 15.0 0.0 0.0 0.0 15.0" Properties=species:S:1:pos:R:3:forces:R:3 energy=        1.9677274971 pbc="T T T"
       O    -0.0258705900    -0.0239834300     0.0000000000      5.807555129      6.422152536     -0.000000000
       H     1.2261212200     0.1868436800     0.0000000000     -5.406260809     -1.544219891     -0.000000000
       H    -0.0942174400     1.1227384200     0.0000000000     -0.401294320     -4.877932645     -0.000000000
