       3
Lattice="15.0 0.0 0.0 0.0 15.0 0.0 0.0 0.0 15.0" Properties=species:S:1:pos:R:3:forces:R:3 energy=        1.4222640401 pbc="T T T"
       O     0.0146838100    -0.0045179000     0.0000000000     -5.369480184      4.359912397     -0.000000000
       H     0.9307386500    -0.1449124700     0.0000000000      2.049824327      1.119226417     -0.000000000
       H    -0.4424713200     1.1455631700     0.0000000000      3.319655857     -5.479138814     -0.000000000
