       3
Lattice="15.0 0.0 0.0 0.0 15.0 0.0 0.0 0.0 15.0" Properties=species:S:1:pos:R:3:forces:R:3 energy=        1.4267223073 pbc="T T T"
       O    -0.0285709000    -0.0177139300     0.0000000000      6.296553162      1.646212722     -0.000000000
       H     1.1299085700     0.2750785500     0.0000000000     -3.931529693     -3.026061243     -0.000000000
       H     0.0448532200     0.9350010600     0.0000000000     -2.365023520      1.379848520     -0.000000000
