       3
Lattice="15.0 0.0 0.0 0.0 15.0 0.0 0.0 0.0 15.0" Properties=species:S:1:pos:R:3:forces:R:3 energy=        1.1617308670 pbc="T T T"
       O    -0.0217109900    -0.0102073800     0.0000000000      5.915275815      2.500879133     -0.000000000
       H     1.2065717200     0.1073534000     0.0000000000     -5.615257914     -0.932141036     -0.000000000
       H    -0.1406860200     0.9835930800     0.0000000000     -0.300017901     -1.568738097     -0.000000000
