       3
Lattice="15.0 0.0 0.0 0.0 15.0 0.0 0.0 0.0 15.0" Properties=species:S:1:pos:R:3:forces:R:3 energy=        0.9927836436 pbc="T T T"
       O    -0.0092955200    -0.0084899700     0.0000000000      3.874167480      4.084579875     -0.000000000
       H     1.1381306900     0.0020797400     0.0000000000     -5.257658741      0.257871382     -0.000000000
       H    -0.2692902500     1.0616105600     0.0000000000      1.383491261     -4.342451256     -0.000000000
