       3
Lattice="15.0 0.0 0.0 0.0 15.0 0.0 0.0 0.0 15.0" Properties=species:S:1:pos:R:3:forces:R:3 energy=        3.9609083098 pbc="T T T"
       O     0.0308433900     0.0190774000     0.0000000000    -36.872989458     11.650230362     -0.000000000
       H     0.6848916600    -0.2275054900     0.0000000000     34.797411715    -10.972143697     -0.000000000
       H    -0.4530910900     0.8536808000     0.0000000000      2.075577743     -0.678086664     -0.000000000
