       3
Lattice="15.0 0.0 0.0 0.0 15.0 0.0 0.0 0.0 15.0" Properties=species:S:1:pos:R:3:forces:R:3 energy=        2.0351638533 pbc="T T T"
       O    -0.0194981000    -0.0064522500     0.0000000000      3.496053003    -12.875800329     -0.000000000
       H     0.9856776600     0.2397788000     0.0000000000     -0.574592771     -3.513244024     -0.000000000
       H     0.0450912100     0.7915692400     0.0000000000     -2.921460232     16.389044354     -0.000000000
