       3
Lattice="15.0 0.0 0.0 0.0 15.0 0.0 0.0 0.0 15.0" Properties=species:S:1:pos:R:3:forces:R:3 energy=        2.2895858851 pbc="T T T"
       O     0.0003545600     0.0112775400     0.0000000000      1.889182394    -24.052947435     -0.000000000
       H     0.8873157600     0.0156287900     0.0000000000      4.858438274     -0.680929586     -0.000000000
       H    -0.1716290300     0.7343352800     0.0000000000     -6.747620669     24.733877020     -0.000000000
