       3
Lattice="15.0 0.0 0.0 0.0 15.0 0.0 0.0 0.0 15.0" Properties=species:S:1:pos:R:3:forces:R:3 energy=        0.6595661728 pbc="T T T"
       O    -0.0034146900     0.0057601300     0.0000000000      3.075752000    -10.565489088     -0.000000000
       H     0.9574849900     0.0249782600     0.0000000000     -0.063674583     -0.478069348     -0.000000000
       H    -0.1819771500     0.8125514500     0.0000000000     -3.012077417     11.043558435     -0.000000000
