       3
Lattice="15.0 0.0 0.0 0.0 15.0 0.0 0.0 0.0 15.0" Properties=species:S:1:pos:R:3:forces:R:3 energy=        2.1211043900 pbc="T T T"
       O     0.0026262900     0.0161610600     0.0000000000      1.995403149     -0.116382171     -0.000000000
       H     1.2121731800    -0.2800151700     0.0000000000     -5.705865123      2.995545628     -0.000000000
       H    -0.5325479600     0.9524771900     0.0000000000      3.710461974     -2.879163457     -0.000000000
