       3
Lattice="15.0 0.0 0.0 0.0 15.0 0.0 0.0 0.0 15.0" Properties=species:S:1:pos:R:3:forces:R:3 energy=        1.6178580785 pbc="T T T"
       O    -0.0030709400    -0.0313930800     0.0000000000     -4.161419129      5.753659074     -0.000000000
       H     0.8591916300     0.2141380300     0.0000000000      5.153450338     -0.489663897     -0.000000000
       H    -0.0891340100     1.2130392100     0.0000000000     -0.992031158     -5.263995177     -0.000000000
