       3
Lattice="15.0 0.0 0.0 0.0 15.0 0.0 0.0 0.0 15.0" Properties=species:S:1:pos:R:3:forces:R:3 energy=        0.5529208000 pbc="T T T"
       O     0.0164308900     0.0170834500     0.0000000000     -6.265795503     -1.784241998     -0.000000000
       H     0.8684346700    -0.1861284200     0.0000000000      5.428981402      0.270934340     -0.000000000
       H    -0.4078961100     0.8439496100     0.0000000000      0.836814101      1.513307606     -0.000000000
