       3
Lattice="15.0 0.0 0.0 0.0 15.0 0.0 0.0 0.0 15.0" Properties=species:S:1:pos:R:3:forces:R:3 energy=        1.6710128680 pbc="T T T"
       O    -0.0011442100    -0.0243863600     0.0000000000      0.879342379      5.879470050     -0.000000000
       H     1.0124864100     0.0492780900     0.0000000000     -2.180352354     -0.061716018     -0.000000000
       H    -0.2730115900     1.2666988800     0.0000000000      1.301009976     -5.817754032     -0.000000000
