       3
Lattice="15.0 0.0 0.0 0.0 15.0 0.0 0.0 0.0 15.0" Properties=species:S:1:pos:R:3:forces:R:3 energy=        1.9579317574 pbc="T T T"
       O    -0.0209962300    -0.0305570100     0.0000000000      5.379174173      7.333083863     -0.000000000
       H     1.1351165600     0.2181526000     0.0000000000     -4.790973215     -1.932856202     -0.000000000
       H    -0.0805714800     1.1957565900     0.0000000000     -0.588200907     -5.400227662     -0.000000000
