       3
Lattice="15.0 0.0 0.0 0.0 15.0 0.0 0.0 0.0 15.0" Properties=species:S:1:pos:R:3:forces:R:3 energy=        1.2144358904 pbc="T T T"
       O     0.0056637400    -0.0100012200     0.0000000000    -14.800145096      2.176968678     -0.000000000
       H     0.8002069600     0.0848895200     0.0000000000     15.417381484      0.472745362     -0.000000000
       H    -0.1687786600     1.0027836000     0.0000000000     -0.617236388     -2.649713989     -0.000000000
