       3
Lattice="15.0 0.0 0.0 0.0 15.0 0.0 0.0 0.0 15.0" Properties=species:S:1:pos:R:3:forces:R:3 energy=        6.6472999508 pbc="T T T"
       O    -0.0194101000     0.0061148700     0.0000000000      3.048468777    -52.676792554     -0.000000000
       H     1.0136264900     0.1773926100     0.0000000000     -1.570759756     -3.085508364     -0.000000000
       H     0.0157439900     0.6545063400     0.0000000000     -1.477709021     55.762300918     -0.000000000
