       3
Lattice="15.0 0.0 0.0 0.0 15.0 0.0 0.0 0.0 15.0" Properties=species:S:1:pos:R:3:forces:R:3 energy=        0.9103063218 pbc="T T T"
       O     0.0019919800    -0.0047288200     0.0000000000      1.059818531      3.813159647     -0.000000000
       H     1.0517486300    -0.0818009100     0.0000000000     -3.549383416      1.131945310     -0.000000000
       H    -0.3620511200     1.0857991000     0.0000000000      2.489564936     -4.945104958     -0.000000000
