       3
Lattice="15.0 0.0 0.0 0.0 15.0 0.0 0.0 0.0 15.0" Properties=species:S:1:pos:R:3:forces:R:3 energy=        3.0915378093 pbc="T T T"
       O    -0.0029817500     0.0276579300     0.0000000000     15.944678276    -24.228974033     -0.000000000
       H     1.1400195800    -0.1910992700     0.0000000000     -5.983188709      2.465095068     -0.000000000
       H    -0.3713887200     0.6810966900     0.0000000000     -9.961489567     21.763878966     -0.000000000
