       3
Lattice="15.0 0.0 0.0 0.0 15.0 0.0 0.0 0.0 15.0" Properties=species:S:1:pos:R:3:forces:R:3 energy=        1.7523588520 pbc="T T T"
       O     0.0055804500    -0.0161817300     0.0000000000    -16.953583592      2.760628757     -0.000000000
       H     0.7804387200     0.1207412300     0.0000000000     17.663598796      1.322844000     -0.000000000
       H    -0.1476874600     1.0650209000     0.0000000000     -0.710015204     -4.083472706     -0.000000000
