       3
Lattice="15.0 0.0 0.0 0.0 15.0 0.0 0.0 0.0 15.0" Properties=species:S:1:pos:R:3:forces:R:3 energy=        2.0751665553 pbc="T T T"
       O    -0.0021632700     0.0207977900     0.0000000000     11.849307168    -21.258425557     -0.000000000
       H     1.0657655800    -0.1219100400     0.0000000000     -4.676670554      1.594167039     -0.000000000
       H    -0.3101226700     0.7207822000     0.0000000000     -7.172636614     19.664258569     -0.000000000
