       3
Lattice="15.0 0.0 0.0 0.0 15.0 0.0 0.0 0.0 15.0" Properties=species:S:1:pos:R:3:forces:R:3 energy=        2.1030414502 pbc="T T T"
       O     0.0152027500    -0.0148475800     0.0000000000     -7.960602407      4.984408093     -0.000000000
       H     0.8976447900    -0.0930611400     0.0000000000      5.226491814      0.694194685     -0.000000000
       H    -0.4176120000     1.2576511100     0.0000000000      2.734110644     -5.678602829     -0.000000000
