       3
Lattice="15.0 0.0 0.0 0.0 15.0 0.0 0.0 0.0 15.0" Properties=species:S:1:pos:R:3:forces:R:3 energy=        0.6048676951 pbc="T T T"
       O     0.0015359600    -0.0031276900     0.0000000000      0.966111289      3.418190758     -0.000000000
       H     1.0359067400    -0.0689244100     0.0000000000     -3.141218642      0.965914754     -0.000000000
       H    -0.3389715100     1.0475113700     0.0000000000      2.175107353     -4.384105461     -0.000000000
