       3
Lattice="15.0 0.0 0.0 0.0 15.0 0.0 0.0 0.0 15.0" Properties=species:S:1:pos:R:3:forces:R:3 energy=        1.7963881997 pbc="T T T"
       O    -0.0094244100     0.0040705800     0.0000000000      3.573345183      1.482515289     -0.000000000
       H     1.2614854300    -0.1316977000     0.0000000000     -6.035627308      1.632395710     -0.000000000
       H    -0.3906029800     0.9960439800     0.0000000000      2.462282125     -3.114910999     -0.000000000
