       3
Lattice="15.0 0.0 0.0 0.0 15.0 0.0 0.0 0.0 15.0" Properties=species:S:1:pos:R:3:forces:R:3 energy=        1.0505453588 pbc="T T T"
       O    -0.0001500100    -0.0106569800     0.0000000000      1.348970328      4.728725184     -0.000000000
       H     1.0494930500    -0.0349720400     0.0000000000     -3.421281997      0.664155804     -0.000000000
       H    -0.3257993600     1.1330542200     0.0000000000      2.072311669     -5.392880988     -0.000000000
