       3
Lattice="15.0 0.0 0.0 0.0 15.0 0.0 0.0 0.0 15.0" Properties=species:S:1:pos:R:3:forces:R:3 energy=        2.0924718839 pbc="T T T"
       O    -0.0235582200     0.0033800400     0.0000000000      5.672329952     -2.205143148     -0.000000000
       H     1.3627538500    -0.0339741000     0.0000000000     -5.982884959      0.639673285     -0.000000000
       H    -0.2675550100     0.9092795200     0.0000000000      0.310555007      1.565469863     -0.000000000
