       3
Lattice="15.0 0.0 0.0 0.0 15.0 0.0 0.0 0.0 15.0" Properties=species:S:1:pos:R:3:forces:R:3 energy=        2.5548970210 pbc="T T T"
       O     0.0091509800     0.0099894400     0.0000000000      0.835242694      1.283299232     -0.000000000
       H     1.1597486200    -0.3002699200     0.0000000000     -5.192385189      3.138532095     -0.000000000
       H    -0.5836755000     1.0706800800     0.0000000000      4.357142444     -4.421831327     -0.000000000
