       3
Lattice="15.0 0.0 0.0 0.0 15.0 0.0 0.0 0.0 15.0" Properties=species:S:1:pos:R:3:forces:R:3 energy=        2.2607582053 pbc="T T T"
       O     0.0122695700    -0.0167168100     0.0000000000     -2.769870849      4.239496575     -0.000000000
       H     0.9719860800    -0.1087504900     0.0000000000      0.042438803      1.167819878     -0.000000000
       H    -0.4454019400     1.3030068100     0.0000000000      2.727432046     -5.407316453     -0.000000000
