       3
Lattice="15.0 0.0 0.0 0.0 15.0 0.0 0.0 0.0 15.0" Properties=species:S:1:pos:R:3:forces:R:3 energy=        0.8363017357 pbc="T T T"
       O     0.0063250600    -0.0076580300     0.0000000000    -11.971415343      2.841391260     -0.000000000
       H     0.8280118300     0.0477649300     0.0000000000     11.925560622      0.097491701     -0.000000000
       H    -0.2070801300     1.0027202700     0.0000000000      0.045854721     -2.938882961     -0.000000000
