       3
Lattice="15.0 0.0 0.0 0.0 15.0 0.0 0.0 0.0 15.0" Properties=species:S:1:pos:R:3:forces:R:3 energy=        1.4959434746 pbc="T T T"
       O    -0.0182815800     0.0049342900     0.0000000000      7.646192337     -8.265746987     -0.000000000
       H     1.2132226500     0.0122136800     0.0000000000     -6.016711745      0.081053037     -0.000000000
       H    -0.2017667800     0.8384238400     0.0000000000     -1.629480592      8.184693950     -0.000000000
