       3
Lattice="15.0 0.0 0.0 0.0 15.0 0.0 0.0 0.0 15.0" Properties=species:S:1:pos:R:3:forces:R:3 energy=        1.7353055553 pbc="T T T"
       O     0.0169756900    -0.0064807000     0.0000000000    -14.559188701      5.679039403     -0.000000000
       H     0.8358024800    -0.0932527200     0.0000000000     11.749386184     -0.095729158     -0.000000000
       H    -0.3839076100     1.1250537000     0.0000000000      2.809802517     -5.583310245     -0.000000000
