       3
Lattice="15.0 0.0 0.0 0.0 15.0 0.0 0.0 0.0 15.0" Properties=species:S:1:pos:R:3:forces:R:3 energy=        0.9261897275 pbc="T T T"
       O     0.0179606700     0.0062688400     0.0000000000     -9.035636373      3.799154430     -0.000000000
       H     0.8755713400    -0.1764465900     0.0000000000      5.689690203      0.431889485     -0.000000000
       H    -0.4393111000     1.0059036200     0.0000000000      3.345946171     -4.231043915     -0.000000000
