       3
Lattice="15.0 0.0 0.0 0.0 15.0 0.0 0.0 0.0 15.0" Properties=species:S:1:pos:R:3:forces:R:3 energy=        1.5070457336 pbc="T T T"
       O     0.0233140400     0.0253679900     0.0000000000    -10.762443190     -2.836076324     -0.000000000
       H     0.7919646400    -0.2376800000     0.0000000000     12.118525502     -2.331219103     -0.000000000
       H    -0.4406681100     0.7640193500     0.0000000000     -1.356082260      5.167295427     -0.000000000
