       3
Lattice="15.0 0.0 0.0 0.0 15.0 0.0 0.0 0.0 15.0" Properties=species:S:1:pos:R:3:forces:R:3 energy=        0.5689406735 pbc="T T T"
       O     0.0091877200     0.0168870800     0.0000000000      0.173271558     -8.256836825     -0.000000000
       H     0.9167625300    -0.1337726800     0.0000000000      1.883141533      0.803175314     -0.000000000
       H    -0.3412683600     0.7947101900     0.0000000000     -2.056413091      7.453661459     -0.000000000
