       3
Lattice="15.0 0.0 0.0 0.0 15.0 0.0 0.0 0.0 15.0" Properties=species:S:1:pos:R:3:forces:R:3 energy=        1.8867695040 pbc="T T T"
       O    -0.0173437500     0.0100590800     0.0000000000      7.362481459     -7.578292607     -0.000000000
       H     1.2816334300    -0.0686148300     0.0000000000     -6.256540916      1.024782194     -0.000000000
       H    -0.2850637500     0.8379188500     0.0000000000     -1.105940544      6.553510413     -0.000000000
