       3
Lattice="15.0 0.0 0.0 0.0 15.0 0.0 0.0 0.0 15.0" Properties=species:S:1:pos:R:3:forces:R:3 energy=        5.5252256298 pbc="T T T"
       O     0.0042527800     0.0294155700     0.0000000000     24.283445811    -47.361056165     -0.000000000
       H     0.9603597800    -0.1462858000     0.0000000000     -1.493825577      1.411026041     -0.000000000
       H    -0.3065449800     0.6083871200     0.0000000000    -22.789620233     45.950030124     -0.000000000
