       3
Lattice="15.0 0.0 0.0 0.0 15.0 0.0 0.0 0.0 15.0" Properties=species:S:1:pos:R:3:forces:R:3 energy=        2.0567367027 pbc="T T T"
       O     0.0093878300    -0.0107535300     0.0000000000    -22.425556070      2.417561313     -0.000000000
       H     0.7640124200     0.0694703700     0.0000000000     22.580299890      1.218261347     -0.000000000
       H    -0.1916884100     1.0301424500     0.0000000000     -0.154743819     -3.635822659     -0.000000000
