       3
Lattice="15.0 0.0 0.0 0.0 15.0 0.0 0.0 0.0 15.0" Properties=species:S:1:pos:R:3:forces:R:3 energy=        1.5945258525 pbc="T T T"
       O    -0.0200799500     0.0031783100     0.0000000000      7.833541514     -9.787894565     -0.000000000
       H     1.1990617800     0.0509060200     0.0000000000     -5.822767582     -0.423581013     -0.000000000
       H    -0.1590635200     0.8275998000     0.0000000000     -2.010773931     10.211475577     -0.000000000
