       3
Lattice="15.0 0.0 0.0 0.0 15.0 0.0 0.0 0.0 15.0" Properties=species:S:1:pos:R:3:forces:R:3 energy=        0.3489577828 pbc="T T T"
       O     0.0037016900    -0.0018139100     0.0000000000     -0.558758368      3.098214145     -0.000000000
       H     0.9887690400    -0.0631510200     0.0000000000     -1.378641438      0.793794846     -0.000000000
       H    -0.3262053800     1.0208871100     0.0000000000      1.937399857     -3.892008991     -0.000000000
