       3
Lattice="15.0 0.0 0.0 0.0 15.0 0.0 0.0 0.0 15.0" Properties=species:S:1:pos:R:3:forces:R:3 energy=        1.0746156502 pbc="T T T"
       O    -0.0025916900    -0.0113283100     0.0000000000      2.126129203      4.820570432     -0.000000000
       H     1.0715526600    -0.0198952500     0.0000000000     -4.013049077      0.512662631     -0.000000000
       H    -0.3091073500     1.1286319300     0.0000000000      1.886919874     -5.333233115     -0.000000000
