       3
Lattice="15.0 0.0 0.0 0.0 15.0 0.0 0.0 0.0 15.0" Properties=species:S:1:pos:R:3:forces:R:3 energy=        4.4829058077 pbc="T T T"
       O    -0.0067066900     0.0133536800     0.0000000000      9.925552419    -42.718321823     -0.000000000
       H     0.9605802500     0.0392182100     0.0000000000     -0.336669560     -0.907601541     -0.000000000
       H    -0.1328257000     0.6777962100     0.0000000000     -9.588882859     43.625923365     -0.000000000
