       3
Lattice="15.0 0.0 0.0 0.0 15.0 0.0 0.0 0.0 15.0" Properties=species:S:1:pos:R:3:forces:R:3 energy=        2.3657054026 pbc="T T T"
       O    -0.0012057900     0.0291649500     0.0000000000      9.879850010    -12.719616434     -0.000000000
       H     1.1965647600    -0.2616434700     0.0000000000     -6.171552186      3.019706964     -0.000000000
       H    -0.4561215500     0.7277239900     0.0000000000     -3.708297772      9.699909471     -0.000000000
