       3
Lattice="15.0 0.0 0.0 0.0 15.0 0.0 0.0 0.0 15.0" Properties=species:S:1:pos:R:3:forces:R:3 energy=        2.2952908692 pbc="T T T"
       O    -0.0122689000    -0.0001930500     0.0000000000      2.283295568    -19.918252416     -0.000000000
       H     0.9347367200     0.1705203800     0.0000000000      1.498227462     -2.618321010     -0.000000000
       H    -0.0187024000     0.7614898100     0.0000000000     -3.781523031     22.536573375     -0.000000000
