       3
Lattice="15.0 0.0 0.0 0.0 15.0 0.0 0.0 0.0 15.0" Properties=species:S:1:pos:R:3:forces:R:3 energy=        0.4282829975 pbc="T T T"
       O    -0.0050649700     0.0063124800     0.0000000000      4.898541537     -6.912206418     -0.000000000
       H     1.0306213200    -0.0132162400     0.0000000000     -3.241757617      0.179542533     -0.000000000
       H    -0.2289233400     0.8419802000     0.0000000000     -1.656783921      6.732663886     -0.000000000
