       3
Lattice="15.0 0.0 0.0 0.0 15.0 0.0 0.0 0.0 15.0" Properties=species:S:1:pos:R:3:forces:R:3 energy=        1.7776917162 pbc="T T T"
       O    -0.0196058300    -0.0008635900     0.0000000000      6.607289072    -14.142612097     -0.000000000
       H     1.0825158100     0.1482996300     0.0000000000     -3.897967525     -2.035678317     -0.000000000
       H    -0.0500395800     0.7943531300     0.0000000000     -2.709321495     16.178290362     -0.000000000
