       3
Lattice="15.0 0.0 0.0 0.0 15.0 0.0 0.0 0.0 15.0" Properties=species:S:1:pos:R:3:forces:R:3 energy=        1.4557637189 pbc="T T T"
       O    -0.0053822600    -0.0268231300     0.0000000000     -5.366840431      4.305922959     -0.000000000
       H     0.8201806900     0.2585158600     0.0000000000      7.868037507     -0.717796394     -0.000000000
       H    -0.0134396100     1.0961324300     0.0000000000     -2.501197127     -3.588126565     -0.000000000
