 3
 energy=4.7946263474400581 cutoff=3.63000000 nneightol=1.20000000 pbc="T T T" Lattice="15.00000000       0.00000000       0.00000000       0.00000000      15.00000000       0.00000000       0.00000000       0.00000000      15.00000000" Properties=species:S:1:pos:R:3:Z:I:1:map_shift:I:3:n_neighb:I:1
 O               0.00000000      0.00000000      0.00000000       8       0       0       0       2
 H               0.95883000      0.00000000      0.00000000       1       0       0       0       2
 H               0.35000000      0.60622000      0.00000000       1       0       0       0       2
 3
 energy=3.7449080313683183 cutoff=3.63000000 nneightol=1.20000000 pbc="T T T" Lattice="15.00000000       0.00000000       0.00000000       0.00000000      15.00000000       0.00000000       0.00000000       0.00000000      15.00000000" Properties=species:S:1:pos:R:3:Z:I:1:map_shift:I:3:n_neighb:I:1
 O               0.00000000      0.00000000      0.00000000       8       0       0       0       2
 H               0.95883000      0.00000000      0.00000000       1       0       0       0       2
 H               0.36842000      0.63812000      0.00000000       1       0       0       0       2
 3
 energy=2.9422131616364595 cutoff=3.63000000 nneightol=1.20000000 pbc="T T T" Lattice="15.00000000       0.00000000       0.00000000       0.00000000      15.00000000       0.00000000       0.00000000       0.00000000      15.00000000" Properties=species:S:1:pos:R:3:Z:I:1:map_shift:I:3:n_neighb:I:1
 O               0.00000000      0.00000000      0.00000000       8       0       0       0       2
 H               0.95883000      0.00000000      0.00000000       1       0       0       0       2
 H               0.38684000      0.67003000      0.00000000       1       0       0       0       2
 3
 energy=2.3592266369145207 cutoff=3.63000000 nneightol=1.20000000 pbc="T T T" Lattice="15.00000000       0.00000000       0.00000000       0.00000000      15.00000000       0.00000000       0.00000000       0.00000000      15.00000000" Properties=species:S:1:pos:R:3:Z:I:1:map_shift:I:3:n_neighb:I:1
 O               0.00000000      0.00000000      0.00000000       8       0       0       0       2
 H               0.95883000      0.00000000      0.00000000       1       0       0       0       2
 H               0.40527000      0.70194000      0.00000000       1       0       0       0       2
 3
 energy=1.9607809950669051 cutoff=3.63000000 nneightol=1.20000000 pbc="T T T" Lattice="15.00000000       0.00000000       0.00000000       0.00000000      15.00000000       0.00000000       0.00000000       0.00000000      15.00000000" Properties=species:S:1:pos:R:3:Z:I:1:map_shift:I:3:n_neighb:I:1
 O               0.00000000      0.00000000      0.00000000       8       0       0       0       2
 H               0.95883000      0.00000000      0.00000000       1       0       0       0       2
 H               0.42369000      0.73384000      0.00000000       1       0       0       0       2
 3
 energy=1.7095838240145937 cutoff=3.63000000 nneightol=1.20000000 pbc="T T T" Lattice="15.00000000       0.00000000       0.00000000       0.00000000      15.00000000       0.00000000       0.00000000       0.00000000      15.00000000" Properties=species:S:1:pos:R:3:Z:I:1:map_shift:I:3:n_neighb:I:1
 O               0.00000000      0.00000000      0.00000000       8       0       0       0       2
 H               0.95883000      0.00000000      0.00000000       1       0       0       0       2
 H               0.44211000      0.76575000      0.00000000       1       0       0       0       2
 3
 energy=1.5718285321425896 cutoff=3.63000000 nneightol=1.20000000 pbc="T T T" Lattice="15.00000000       0.00000000       0.00000000       0.00000000      15.00000000       0.00000000       0.00000000       0.00000000      15.00000000" Properties=species:S:1:pos:R:3:Z:I:1:map_shift:I:3:n_neighb:I:1
 O               0.00000000      0.00000000      0.00000000       8       0       0       0       2
 H               0.95883000      0.00000000      0.00000000       1       0       0       0       2
 H               0.46053000      0.79765000      0.00000000       1       0       0       0       2
 3
 energy=1.5190874253965845 cutoff=3.63000000 nneightol=1.20000000 pbc="T T T" Lattice="15.00000000       0.00000000       0.00000000       0.00000000      15.00000000       0.00000000       0.00000000       0.00000000      15.00000000" Properties=species:S:1:pos:R:3:Z:I:1:map_shift:I:3:n_neighb:I:1
 O               0.00000000      0.00000000      0.00000000       8       0       0       0       2
 H               0.95883000      0.00000000      0.00000000       1       0       0       0       2
 H               0.47895000      0.82956000      0.00000000       1       0       0       0       2
 3
 energy=1.5293587299504807 cutoff=3.63000000 nneightol=1.20000000 pbc="T T T" Lattice="15.00000000       0.00000000       0.00000000       0.00000000      15.00000000       0.00000000       0.00000000       0.00000000      15.00000000" Properties=species:S:1:pos:R:3:Z:I:1:map_shift:I:3:n_neighb:I:1
 O               0.00000000      0.00000000      0.00000000       8       0       0       0       2
 H               0.95883000      0.00000000      0.00000000       1       0       0       0       2
 H               0.49737000      0.86147000      0.00000000       1       0       0       0       2
 3
 energy=1.5861505524267514 cutoff=3.63000000 nneightol=1.20000000 pbc="T T T" Lattice="15.00000000       0.00000000       0.00000000       0.00000000      15.00000000       0.00000000       0.00000000       0.00000000      15.00000000" Properties=species:S:1:pos:R:3:Z:I:1:map_shift:I:3:n_neighb:I:1
 O               0.00000000      0.00000000      0.00000000       8       0       0       0       2
 H               0.95883000      0.00000000      0.00000000       1       0       0       0       2
 H               0.51579000      0.89337000      0.00000000       1       0       0       0       2
 3
 energy=1.6771951585616520 cutoff=3.63000000 nneightol=1.20000000 pbc="T T T" Lattice="15.00000000       0.00000000       0.00000000       0.00000000      15.00000000       0.00000000       0.00000000       0.00000000      15.00000000" Properties=species:S:1:pos:R:3:Z:I:1:map_shift:I:3:n_neighb:I:1
 O               0.00000000      0.00000000      0.00000000       8       0       0       0       2
 H               0.95883000      0.00000000      0.00000000       1       0       0       0       2
 H               0.53421000      0.92528000      0.00000000       1       0       0       0       2
 3
 energy=1.7930275726069311 cutoff=3.63000000 nneightol=1.20000000 pbc="T T T" Lattice="15.00000000       0.00000000       0.00000000       0.00000000      15.00000000       0.00000000       0.00000000       0.00000000      15.00000000" Properties=species:S:1:pos:R:3:Z:I:1:map_shift:I:3:n_neighb:I:1
 O               0.00000000      0.00000000      0.00000000       8       0       0       0       2
 H               0.95883000      0.00000000      0.00000000       1       0       0       0       2
 H               0.55263000      0.95718000      0.00000000       1       0       0       0       2
 3
 energy=1.9259717705566715 cutoff=3.63000000 nneightol=1.20000000 pbc="T T T" Lattice="15.00000000       0.00000000       0.00000000       0.00000000      15.00000000       0.00000000       0.00000000       0.00000000      15.00000000" Properties=species:S:1:pos:R:3:Z:I:1:map_shift:I:3:n_neighb:I:1
 O               0.00000000      0.00000000      0.00000000       8       0       0       0       2
 H               0.95883000      0.00000000      0.00000000       1       0       0       0       2
 H               0.57106000      0.98910000      0.00000000       1       0       0       0       2
 3
 energy=2.0691360649155399 cutoff=3.63000000 nneightol=1.20000000 pbc="T T T" Lattice="15.00000000       0.00000000       0.00000000       0.00000000      15.00000000       0.00000000       0.00000000       0.00000000      15.00000000" Properties=species:S:1:pos:R:3:Z:I:1:map_shift:I:3:n_neighb:I:1
 O               0.00000000      0.00000000      0.00000000       8       0       0       0       2
 H               0.95883000      0.00000000      0.00000000       1       0       0       0       2
 H               0.58948000      1.02100000      0.00000000       1       0       0       0       2
 3
 energy=2.2166620934279067 cutoff=3.63000000 nneightol=1.20000000 pbc="T T T" Lattice="15.00000000       0.00000000       0.00000000       0.00000000      15.00000000       0.00000000       0.00000000       0.00000000      15.00000000" Properties=species:S:1:pos:R:3:Z:I:1:map_shift:I:3:n_neighb:I:1
 O               0.00000000      0.00000000      0.00000000       8       0       0       0       2
 H               0.95883000      0.00000000      0.00000000       1       0       0       0       2
 H               0.60790000      1.05291000      0.00000000       1       0       0       0       2
 3
 energy=2.3634129423937935 cutoff=3.63000000 nneightol=1.20000000 pbc="T T T" Lattice="15.00000000       0.00000000       0.00000000       0.00000000      15.00000000       0.00000000       0.00000000       0.00000000      15.00000000" Properties=species:S:1:pos:R:3:Z:I:1:map_shift:I:3:n_neighb:I:1
 O               0.00000000      0.00000000      0.00000000       8       0       0       0       2
 H               0.95883000      0.00000000      0.00000000       1       0       0       0       2
 H               0.62632000      1.08481000      0.00000000       1       0       0       0       2
 3
 energy=2.5053625270134461 cutoff=3.63000000 nneightol=1.20000000 pbc="T T T" Lattice="15.00000000       0.00000000       0.00000000       0.00000000      15.00000000       0.00000000       0.00000000       0.00000000      15.00000000" Properties=species:S:1:pos:R:3:Z:I:1:map_shift:I:3:n_neighb:I:1
 O               0.00000000      0.00000000      0.00000000       8       0       0       0       2
 H               0.95883000      0.00000000      0.00000000       1       0       0       0       2
 H               0.64474000      1.11671000      0.00000000       1       0       0       0       2
 3
 energy=2.6397156235575281 cutoff=3.63000000 nneightol=1.20000000 pbc="T T T" Lattice="15.00000000       0.00000000       0.00000000       0.00000000      15.00000000       0.00000000       0.00000000       0.00000000      15.00000000" Properties=species:S:1:pos:R:3:Z:I:1:map_shift:I:3:n_neighb:I:1
 O               0.00000000      0.00000000      0.00000000       8       0       0       0       2
 H               0.95883000      0.00000000      0.00000000       1       0       0       0       2
 H               0.66316000      1.14863000      0.00000000       1       0       0       0       2
 3
 energy=2.7648037547088649 cutoff=3.63000000 nneightol=1.20000000 pbc="T T T" Lattice="15.00000000       0.00000000       0.00000000       0.00000000      15.00000000       0.00000000       0.00000000       0.00000000      15.00000000" Properties=species:S:1:pos:R:3:Z:I:1:map_shift:I:3:n_neighb:I:1
 O               0.00000000      0.00000000      0.00000000       8       0       0       0       2
 H               0.95883000      0.00000000      0.00000000       1       0       0       0       2
 H               0.68158000      1.18053000      0.00000000       1       0       0       0       2
 3
 energy=2.8801477441699603 cutoff=3.63000000 nneightol=1.20000000 pbc="T T T" Lattice="15.00000000       0.00000000       0.00000000       0.00000000      15.00000000       0.00000000       0.00000000       0.00000000      15.00000000" Properties=species:S:1:pos:R:3:Z:I:1:map_shift:I:3:n_neighb:I:1
 O               0.00000000      0.00000000      0.00000000       8       0       0       0       2
 H               0.95883000      0.00000000      0.00000000       1       0       0       0       2
 H               0.70000000      1.21244000      0.00000000       1       0       0       0       2
 3
 energy=4.7481183937327813 cutoff=3.63000000 nneightol=1.20000000 pbc="T T T" Lattice="15.00000000       0.00000000       0.00000000       0.00000000      15.00000000       0.00000000       0.00000000       0.00000000      15.00000000" Properties=species:S:1:pos:R:3:Z:I:1:map_shift:I:3:n_neighb:I:1
 O               0.00000000      0.00000000      0.00000000       8       0       0       0       2
 H               0.95883000      0.00000000      0.00000000       1       0       0       0       2
 H               0.31667000      0.62428000      0.00000000       1       0       0       0       2
 3
 energy=3.6649390566249025 cutoff=3.63000000 nneightol=1.20000000 pbc="T T T" Lattice="15.00000000       0.00000000       0.00000000       0.00000000      15.00000000       0.00000000       0.00000000       0.00000000      15.00000000" Properties=species:S:1:pos:R:3:Z:I:1:map_shift:I:3:n_neighb:I:1
 O               0.00000000      0.00000000      0.00000000       8       0       0       0       2
 H               0.95883000      0.00000000      0.00000000       1       0       0       0       2
 H               0.33333000      0.65713000      0.00000000       1       0       0       0       2
 3
 energy=2.8356901434311226 cutoff=3.63000000 nneightol=1.20000000 pbc="T T T" Lattice="15.00000000       0.00000000       0.00000000       0.00000000      15.00000000       0.00000000       0.00000000       0.00000000      15.00000000" Properties=species:S:1:pos:R:3:Z:I:1:map_shift:I:3:n_neighb:I:1
 O               0.00000000      0.00000000      0.00000000       8       0       0       0       2
 H               0.95883000      0.00000000      0.00000000       1       0       0       0       2
 H               0.35000000      0.68999000      0.00000000       1       0       0       0       2
 3
 energy=2.2331440969273046 cutoff=3.63000000 nneightol=1.20000000 pbc="T T T" Lattice="15.00000000       0.00000000       0.00000000       0.00000000      15.00000000       0.00000000       0.00000000       0.00000000      15.00000000" Properties=species:S:1:pos:R:3:Z:I:1:map_shift:I:3:n_neighb:I:1
 O               0.00000000      0.00000000      0.00000000       8       0       0       0       2
 H               0.95883000      0.00000000      0.00000000       1       0       0       0       2
 H               0.36667000      0.72285000      0.00000000       1       0       0       0       2
 3
 energy=1.8208185283594815 cutoff=3.63000000 nneightol=1.20000000 pbc="T T T" Lattice="15.00000000       0.00000000       0.00000000       0.00000000      15.00000000       0.00000000       0.00000000       0.00000000      15.00000000" Properties=species:S:1:pos:R:3:Z:I:1:map_shift:I:3:n_neighb:I:1
 O               0.00000000      0.00000000      0.00000000       8       0       0       0       2
 H               0.95883000      0.00000000      0.00000000       1       0       0       0       2
 H               0.38333000      0.75571000      0.00000000       1       0       0       0       2
 3
 energy=1.5600565828938571 cutoff=3.63000000 nneightol=1.20000000 pbc="T T T" Lattice="15.00000000       0.00000000       0.00000000       0.00000000      15.00000000       0.00000000       0.00000000       0.00000000      15.00000000" Properties=species:S:1:pos:R:3:Z:I:1:map_shift:I:3:n_neighb:I:1
 O               0.00000000      0.00000000      0.00000000       8       0       0       0       2
 H               0.95883000      0.00000000      0.00000000       1       0       0       0       2
 H               0.40000000      0.78856000      0.00000000       1       0       0       0       2
 3
 energy=1.4150597882084455 cutoff=3.63000000 nneightol=1.20000000 pbc="T T T" Lattice="15.00000000       0.00000000       0.00000000       0.00000000      15.00000000       0.00000000       0.00000000       0.00000000      15.00000000" Properties=species:S:1:pos:R:3:Z:I:1:map_shift:I:3:n_neighb:I:1
 O               0.00000000      0.00000000      0.00000000       8       0       0       0       2
 H               0.95883000      0.00000000      0.00000000       1       0       0       0       2
 H               0.41667000      0.82142000      0.00000000       1       0       0       0       2
 3
 energy=1.3561794685527744 cutoff=3.63000000 nneightol=1.20000000 pbc="T T T" Lattice="15.00000000       0.00000000       0.00000000       0.00000000      15.00000000       0.00000000       0.00000000       0.00000000      15.00000000" Properties=species:S:1:pos:R:3:Z:I:1:map_shift:I:3:n_neighb:I:1
 O               0.00000000      0.00000000      0.00000000       8       0       0       0       2
 H               0.95883000      0.00000000      0.00000000       1       0       0       0       2
 H               0.43333000      0.85427000      0.00000000       1       0       0       0       2
 3
 energy=1.3604444779508995 cutoff=3.63000000 nneightol=1.20000000 pbc="T T T" Lattice="15.00000000       0.00000000       0.00000000       0.00000000      15.00000000       0.00000000       0.00000000       0.00000000      15.00000000" Properties=species:S:1:pos:R:3:Z:I:1:map_shift:I:3:n_neighb:I:1
 O               0.00000000      0.00000000      0.00000000       8       0       0       0       2
 H               0.95883000      0.00000000      0.00000000       1       0       0       0       2
 H               0.45000000      0.88713000      0.00000000       1       0       0       0       2
 3
 energy=1.4110085826381251 cutoff=3.63000000 nneightol=1.20000000 pbc="T T T" Lattice="15.00000000       0.00000000       0.00000000       0.00000000      15.00000000       0.00000000       0.00000000       0.00000000      15.00000000" Properties=species:S:1:pos:R:3:Z:I:1:map_shift:I:3:n_neighb:I:1
 O               0.00000000      0.00000000      0.00000000       8       0       0       0       2
 H               0.95883000      0.00000000      0.00000000       1       0       0       0       2
 H               0.46667000      0.91999000      0.00000000       1       0       0       0       2
 3
 energy=1.4956310418167575 cutoff=3.63000000 nneightol=1.20000000 pbc="T T T" Lattice="15.00000000       0.00000000       0.00000000       0.00000000      15.00000000       0.00000000       0.00000000       0.00000000      15.00000000" Properties=species:S:1:pos:R:3:Z:I:1:map_shift:I:3:n_neighb:I:1
 O               0.00000000      0.00000000      0.00000000       8       0       0       0       2
 H               0.95883000      0.00000000      0.00000000       1       0       0       0       2
 H               0.48333000      0.95284000      0.00000000       1       0       0       0       2
 3
 energy=1.6053603335255175 cutoff=3.63000000 nneightol=1.20000000 pbc="T T T" Lattice="15.00000000       0.00000000       0.00000000       0.00000000      15.00000000       0.00000000       0.00000000       0.00000000      15.00000000" Properties=species:S:1:pos:R:3:Z:I:1:map_shift:I:3:n_neighb:I:1
 O               0.00000000      0.00000000      0.00000000       8       0       0       0       2
 H               0.95883000      0.00000000      0.00000000       1       0       0       0       2
 H               0.50000000      0.98570000      0.00000000       1       0       0       0       2
 3
 energy=1.7330166556305713 cutoff=3.63000000 nneightol=1.20000000 pbc="T T T" Lattice="15.00000000       0.00000000       0.00000000       0.00000000      15.00000000       0.00000000       0.00000000       0.00000000      15.00000000" Properties=species:S:1:pos:R:3:Z:I:1:map_shift:I:3:n_neighb:I:1
 O               0.00000000      0.00000000      0.00000000       8       0       0       0       2
 H               0.95883000      0.00000000      0.00000000       1       0       0       0       2
 H               0.51667000      1.01856000      0.00000000       1       0       0       0       2
 3
 energy=1.8725290368555605 cutoff=3.63000000 nneightol=1.20000000 pbc="T T T" Lattice="15.00000000       0.00000000       0.00000000       0.00000000      15.00000000       0.00000000       0.00000000       0.00000000      15.00000000" Properties=species:S:1:pos:R:3:Z:I:1:map_shift:I:3:n_neighb:I:1
 O               0.00000000      0.00000000      0.00000000       8       0       0       0       2
 H               0.95883000      0.00000000      0.00000000       1       0       0       0       2
 H               0.53333000      1.05142000      0.00000000       1       0       0       0       2
 3
 energy=2.0187035829033420 cutoff=3.63000000 nneightol=1.20000000 pbc="T T T" Lattice="15.00000000       0.00000000       0.00000000       0.00000000      15.00000000       0.00000000       0.00000000       0.00000000      15.00000000" Properties=species:S:1:pos:R:3:Z:I:1:map_shift:I:3:n_neighb:I:1
 O               0.00000000      0.00000000      0.00000000       8       0       0       0       2
 H               0.95883000      0.00000000      0.00000000       1       0       0       0       2
 H               0.55000000      1.08427000      0.00000000       1       0       0       0       2
 3
 energy=2.1670041441115160 cutoff=3.63000000 nneightol=1.20000000 pbc="T T T" Lattice="15.00000000       0.00000000       0.00000000       0.00000000      15.00000000       0.00000000       0.00000000       0.00000000      15.00000000" Properties=species:S:1:pos:R:3:Z:I:1:map_shift:I:3:n_neighb:I:1
 O               0.00000000      0.00000000      0.00000000       8       0       0       0       2
 H               0.95883000      0.00000000      0.00000000       1       0       0       0       2
 H               0.56667000      1.11713000      0.00000000       1       0       0       0       2
 3
 energy=2.3136412717261976 cutoff=3.63000000 nneightol=1.20000000 pbc="T T T" Lattice="15.00000000       0.00000000       0.00000000       0.00000000      15.00000000       0.00000000       0.00000000       0.00000000      15.00000000" Properties=species:S:1:pos:R:3:Z:I:1:map_shift:I:3:n_neighb:I:1
 O               0.00000000      0.00000000      0.00000000       8       0       0       0       2
 H               0.95883000      0.00000000      0.00000000       1       0       0       0       2
 H               0.58333000      1.14998000      0.00000000       1       0       0       0       2
 3
 energy=2.4559895043775413 cutoff=3.63000000 nneightol=1.20000000 pbc="T T T" Lattice="15.00000000       0.00000000       0.00000000       0.00000000      15.00000000       0.00000000       0.00000000       0.00000000      15.00000000" Properties=species:S:1:pos:R:3:Z:I:1:map_shift:I:3:n_neighb:I:1
 O               0.00000000      0.00000000      0.00000000       8       0       0       0       2
 H               0.95883000      0.00000000      0.00000000       1       0       0       0       2
 H               0.60000000      1.18285000      0.00000000       1       0       0       0       2
 3
 energy=2.5920407989380578 cutoff=3.63000000 nneightol=1.20000000 pbc="T T T" Lattice="15.00000000       0.00000000       0.00000000       0.00000000      15.00000000       0.00000000       0.00000000       0.00000000      15.00000000" Properties=species:S:1:pos:R:3:Z:I:1:map_shift:I:3:n_neighb:I:1
 O               0.00000000      0.00000000      0.00000000       8       0       0       0       2
 H               0.95883000      0.00000000      0.00000000       1       0       0       0       2
 H               0.61667000      1.21570000      0.00000000       1       0       0       0       2
 3
 energy=2.7206945469922843 cutoff=3.63000000 nneightol=1.20000000 pbc="T T T" Lattice="15.00000000       0.00000000       0.00000000       0.00000000      15.00000000       0.00000000       0.00000000       0.00000000      15.00000000" Properties=species:S:1:pos:R:3:Z:I:1:map_shift:I:3:n_neighb:I:1
 O               0.00000000      0.00000000      0.00000000       8       0       0       0       2
 H               0.95883000      0.00000000      0.00000000       1       0       0       0       2
 H               0.63333000      1.24855000      0.00000000       1       0       0       0       2
 3
 energy=4.6871056448309929 cutoff=3.63000000 nneightol=1.20000000 pbc="T T T" Lattice="15.00000000       0.00000000       0.00000000       0.00000000      15.00000000       0.00000000       0.00000000       0.00000000      15.00000000" Properties=species:S:1:pos:R:3:Z:I:1:map_shift:I:3:n_neighb:I:1
 O               0.00000000      0.00000000      0.00000000       8       0       0       0       2
 H               0.95883000      0.00000000      0.00000000       1       0       0       0       2
 H               0.28240000      0.64051000      0.00000000       1       0       0       0       2
 3
 energy=3.5720560591338142 cutoff=3.63000000 nneightol=1.20000000 pbc="T T T" Lattice="15.00000000       0.00000000       0.00000000       0.00000000      15.00000000       0.00000000       0.00000000       0.00000000      15.00000000" Properties=species:S:1:pos:R:3:Z:I:1:map_shift:I:3:n_neighb:I:1
 O               0.00000000      0.00000000      0.00000000       8       0       0       0       2
 H               0.95883000      0.00000000      0.00000000       1       0       0       0       2
 H               0.29727000      0.67421000      0.00000000       1       0       0       0       2
 3
 energy=2.7178762754909442 cutoff=3.63000000 nneightol=1.20000000 pbc="T T T" Lattice="15.00000000       0.00000000       0.00000000       0.00000000      15.00000000       0.00000000       0.00000000       0.00000000      15.00000000" Properties=species:S:1:pos:R:3:Z:I:1:map_shift:I:3:n_neighb:I:1
 O               0.00000000      0.00000000      0.00000000       8       0       0       0       2
 H               0.95883000      0.00000000      0.00000000       1       0       0       0       2
 H               0.31213000      0.70792000      0.00000000       1       0       0       0       2
 3
 energy=2.0967222460121278 cutoff=3.63000000 nneightol=1.20000000 pbc="T T T" Lattice="15.00000000       0.00000000       0.00000000       0.00000000      15.00000000       0.00000000       0.00000000       0.00000000      15.00000000" Properties=species:S:1:pos:R:3:Z:I:1:map_shift:I:3:n_neighb:I:1
 O               0.00000000      0.00000000      0.00000000       8       0       0       0       2
 H               0.95883000      0.00000000      0.00000000       1       0       0       0       2
 H               0.32700000      0.74164000      0.00000000       1       0       0       0       2
 3
 energy=1.6713584669268400 cutoff=3.63000000 nneightol=1.20000000 pbc="T T T" Lattice="15.00000000       0.00000000       0.00000000       0.00000000      15.00000000       0.00000000       0.00000000       0.00000000      15.00000000" Properties=species:S:1:pos:R:3:Z:I:1:map_shift:I:3:n_neighb:I:1
 O               0.00000000      0.00000000      0.00000000       8       0       0       0       2
 H               0.95883000      0.00000000      0.00000000       1       0       0       0       2
 H               0.34186000      0.77535000      0.00000000       1       0       0       0       2
 3
 energy=1.4012769658118955 cutoff=3.63000000 nneightol=1.20000000 pbc="T T T" Lattice="15.00000000       0.00000000       0.00000000       0.00000000      15.00000000       0.00000000       0.00000000       0.00000000      15.00000000" Properties=species:S:1:pos:R:3:Z:I:1:map_shift:I:3:n_neighb:I:1
 O               0.00000000      0.00000000      0.00000000       8       0       0       0       2
 H               0.95883000      0.00000000      0.00000000       1       0       0       0       2
 H               0.35672000      0.80906000      0.00000000       1       0       0       0       2
 3
 energy=1.2492498578689677 cutoff=3.63000000 nneightol=1.20000000 pbc="T T T" Lattice="15.00000000       0.00000000       0.00000000       0.00000000      15.00000000       0.00000000       0.00000000       0.00000000      15.00000000" Properties=species:S:1:pos:R:3:Z:I:1:map_shift:I:3:n_neighb:I:1
 O               0.00000000      0.00000000      0.00000000       8       0       0       0       2
 H               0.95883000      0.00000000      0.00000000       1       0       0       0       2
 H               0.37158000      0.84277000      0.00000000       1       0       0       0       2
 3
 energy=1.1843999158500509 cutoff=3.63000000 nneightol=1.20000000 pbc="T T T" Lattice="15.00000000       0.00000000       0.00000000       0.00000000      15.00000000       0.00000000       0.00000000       0.00000000      15.00000000" Properties=species:S:1:pos:R:3:Z:I:1:map_shift:I:3:n_neighb:I:1
 O               0.00000000      0.00000000      0.00000000       8       0       0       0       2
 H               0.95883000      0.00000000      0.00000000       1       0       0       0       2
 H               0.38645000      0.87648000      0.00000000       1       0       0       0       2
 3
 energy=1.1830636268547607 cutoff=3.63000000 nneightol=1.20000000 pbc="T T T" Lattice="15.00000000       0.00000000       0.00000000       0.00000000      15.00000000       0.00000000       0.00000000       0.00000000      15.00000000" Properties=species:S:1:pos:R:3:Z:I:1:map_shift:I:3:n_neighb:I:1
 O               0.00000000      0.00000000      0.00000000       8       0       0       0       2
 H               0.95883000      0.00000000      0.00000000       1       0       0       0       2
 H               0.40131000      0.91020000      0.00000000       1       0       0       0       2
 3
 energy=1.2283253001592129 cutoff=3.63000000 nneightol=1.20000000 pbc="T T T" Lattice="15.00000000       0.00000000       0.00000000       0.00000000      15.00000000       0.00000000       0.00000000       0.00000000      15.00000000" Properties=species:S:1:pos:R:3:Z:I:1:map_shift:I:3:n_neighb:I:1
 O               0.00000000      0.00000000      0.00000000       8       0       0       0       2